Polymer,Polymer_SMILES,Solvent,Solvent_SMILES,Contact_angle,Thickness,Solvent_solubility_parameter,xw_(wt%),Temperature,Permeate_pressure,J_total_flux,a_separation_factor,Polymer_BRICS,Solvent_BRICS,PS_pair_BRICS,PS_tokenized_BRICS
pva,C(C)C(C)(O),ethylene_glycol,OCCO,74.0,10.0,32.9,10.0,60,6.7,0.294736842,1687.5,"['CCC(C)O', '.', 'OCCO']",['OCCO'],"['CCC(C)O', '.', 'OCCO']","[0, 0, 0, 0, 0, 0, 20, 1, 29]"
pva,C(C)C(C)(O),ethylene_glycol,OCCO,74.0,10.0,32.9,10.0,60,6.7,0.325581395,1675.637394,"['CCC(C)O', '.', 'OCCO']",['OCCO'],"['CCC(C)O', '.', 'OCCO']","[0, 0, 0, 0, 0, 0, 20, 1, 29]"
pva,C(C)C(C)(O),ethylene_glycol,OCCO,74.0,10.0,32.9,10.0,75,6.7,1.046511628,604.815864,"['CCC(C)O', '.', 'OCCO']",['OCCO'],"['CCC(C)O', '.', 'OCCO']","[0, 0, 0, 0, 0, 0, 20, 1, 29]"
pva,C(C)C(C)(O),ethylene_glycol,OCCO,74.0,10.0,32.9,10.0,70,6.7,1.093023256,1001.416431,"['CCC(C)O', '.', 'OCCO']",['OCCO'],"['CCC(C)O', '.', 'OCCO']","[0, 0, 0, 0, 0, 0, 20, 1, 29]"
pva,C(C)C(C)(O),ethylene_glycol,OCCO,74.0,10.0,32.9,10.0,70,6.7,1.136842105,1000.0,"['CCC(C)O', '.', 'OCCO']",['OCCO'],"['CCC(C)O', '.', 'OCCO']","[0, 0, 0, 0, 0, 0, 20, 1, 29]"
pva,C(C)C(C)(O),ethylene_glycol,OCCO,74.0,10.0,32.9,20.0,60,6.7,1.186046512,2488.668555,"['CCC(C)O', '.', 'OCCO']",['OCCO'],"['CCC(C)O', '.', 'OCCO']","[0, 0, 0, 0, 0, 0, 20, 1, 29]"
pva,C(C)C(C)(O),ethylene_glycol,OCCO,74.0,10.0,32.9,20.0,60,6.7,1.221052632,2500.0,"['CCC(C)O', '.', 'OCCO']",['OCCO'],"['CCC(C)O', '.', 'OCCO']","[0, 0, 0, 0, 0, 0, 20, 1, 29]"
pva,C(C)C(C)(O),ethylene_glycol,OCCO,74.0,10.0,32.9,10.0,75,6.7,1.263157895,593.75,"['CCC(C)O', '.', 'OCCO']",['OCCO'],"['CCC(C)O', '.', 'OCCO']","[0, 0, 0, 0, 0, 0, 20, 1, 29]"
pva,C(C)C(C)(O),ethylene_glycol,OCCO,74.0,10.0,32.9,10.0,80,6.7,1.372093023,297.450425,"['CCC(C)O', '.', 'OCCO']",['OCCO'],"['CCC(C)O', '.', 'OCCO']","[0, 0, 0, 0, 0, 0, 20, 1, 29]"
pva,C(C)C(C)(O),ethylene_glycol,OCCO,74.0,10.0,32.9,10.0,80,6.7,1.389473684,296.875,"['CCC(C)O', '.', 'OCCO']",['OCCO'],"['CCC(C)O', '.', 'OCCO']","[0, 0, 0, 0, 0, 0, 20, 1, 29]"
pva,C(C)C(C)(O),ethylene_glycol,OCCO,74.0,10.0,32.9,30.0,60,6.7,2.273684211,1390.625,"['CCC(C)O', '.', 'OCCO']",['OCCO'],"['CCC(C)O', '.', 'OCCO']","[0, 0, 0, 0, 0, 0, 20, 1, 29]"
pva,C(C)C(C)(O),ethylene_glycol,OCCO,74.0,10.0,32.9,30.0,60,6.7,2.302325581,1388.101983,"['CCC(C)O', '.', 'OCCO']",['OCCO'],"['CCC(C)O', '.', 'OCCO']","[0, 0, 0, 0, 0, 0, 20, 1, 29]"
pva,C(C)C(C)(O),ethylene_glycol,OCCO,74.0,10.0,32.9,20.0,70,6.7,2.488372093,1477.33711,"['CCC(C)O', '.', 'OCCO']",['OCCO'],"['CCC(C)O', '.', 'OCCO']","[0, 0, 0, 0, 0, 0, 20, 1, 29]"
pva,C(C)C(C)(O),ethylene_glycol,OCCO,74.0,10.0,32.9,20.0,70,6.7,2.526315789,1484.375,"['CCC(C)O', '.', 'OCCO']",['OCCO'],"['CCC(C)O', '.', 'OCCO']","[0, 0, 0, 0, 0, 0, 20, 1, 29]"
pva,C(C)C(C)(O),ethylene_glycol,OCCO,74.0,10.0,32.9,20.0,75,6.7,2.558139535,1219.546742,"['CCC(C)O', '.', 'OCCO']",['OCCO'],"['CCC(C)O', '.', 'OCCO']","[0, 0, 0, 0, 0, 0, 20, 1, 29]"
pva,C(C)C(C)(O),ethylene_glycol,OCCO,74.0,10.0,32.9,20.0,75,6.7,2.652631579,1218.75,"['CCC(C)O', '.', 'OCCO']",['OCCO'],"['CCC(C)O', '.', 'OCCO']","[0, 0, 0, 0, 0, 0, 20, 1, 29]"
pva,C(C)C(C)(O),ethylene_glycol,OCCO,74.0,10.0,32.9,20.0,80,6.7,2.744186047,892.351275,"['CCC(C)O', '.', 'OCCO']",['OCCO'],"['CCC(C)O', '.', 'OCCO']","[0, 0, 0, 0, 0, 0, 20, 1, 29]"
pva,C(C)C(C)(O),ethylene_glycol,OCCO,74.0,10.0,32.9,20.0,80,6.7,2.821052632,906.25,"['CCC(C)O', '.', 'OCCO']",['OCCO'],"['CCC(C)O', '.', 'OCCO']","[0, 0, 0, 0, 0, 0, 20, 1, 29]"
pva,C(C)C(C)(O),ethylene_glycol,OCCO,74.0,10.0,32.9,30.0,70,6.7,3.705263158,796.875,"['CCC(C)O', '.', 'OCCO']",['OCCO'],"['CCC(C)O', '.', 'OCCO']","[0, 0, 0, 0, 0, 0, 20, 1, 29]"
pva,C(C)C(C)(O),ethylene_glycol,OCCO,74.0,10.0,32.9,30.0,70,6.7,3.720930233,793.201133,"['CCC(C)O', '.', 'OCCO']",['OCCO'],"['CCC(C)O', '.', 'OCCO']","[0, 0, 0, 0, 0, 0, 20, 1, 29]"
pva,C(C)C(C)(O),ethylene_glycol,OCCO,74.0,10.0,32.9,40.0,60,6.7,3.906976744,1001.416431,"['CCC(C)O', '.', 'OCCO']",['OCCO'],"['CCC(C)O', '.', 'OCCO']","[0, 0, 0, 0, 0, 0, 20, 1, 29]"
pva,C(C)C(C)(O),ethylene_glycol,OCCO,74.0,10.0,32.9,40.0,60,6.7,3.915789474,1015.625,"['CCC(C)O', '.', 'OCCO']",['OCCO'],"['CCC(C)O', '.', 'OCCO']","[0, 0, 0, 0, 0, 0, 20, 1, 29]"
pva,C(C)C(C)(O),ethylene_glycol,OCCO,74.0,10.0,32.9,30.0,75,6.7,4.0,390.625,"['CCC(C)O', '.', 'OCCO']",['OCCO'],"['CCC(C)O', '.', 'OCCO']","[0, 0, 0, 0, 0, 0, 20, 1, 29]"
pva,C(C)C(C)(O),ethylene_glycol,OCCO,74.0,10.0,32.9,30.0,75,6.7,4.023255814,386.685552,"['CCC(C)O', '.', 'OCCO']",['OCCO'],"['CCC(C)O', '.', 'OCCO']","[0, 0, 0, 0, 0, 0, 20, 1, 29]"
pva,C(C)C(C)(O),ethylene_glycol,OCCO,74.0,10.0,32.9,30.0,80,6.7,4.505263158,125.0,"['CCC(C)O', '.', 'OCCO']",['OCCO'],"['CCC(C)O', '.', 'OCCO']","[0, 0, 0, 0, 0, 0, 20, 1, 29]"
pva,C(C)C(C)(O),ethylene_glycol,OCCO,74.0,10.0,32.9,30.0,80,6.7,4.511627907,128.895184,"['CCC(C)O', '.', 'OCCO']",['OCCO'],"['CCC(C)O', '.', 'OCCO']","[0, 0, 0, 0, 0, 0, 20, 1, 29]"
pva,C(C)C(C)(O),ethylene_glycol,OCCO,74.0,10.0,32.9,40.0,70,6.7,5.209302326,703.966006,"['CCC(C)O', '.', 'OCCO']",['OCCO'],"['CCC(C)O', '.', 'OCCO']","[0, 0, 0, 0, 0, 0, 20, 1, 29]"
pva,C(C)C(C)(O),ethylene_glycol,OCCO,74.0,10.0,32.9,40.0,70,6.7,5.221052632,703.125,"['CCC(C)O', '.', 'OCCO']",['OCCO'],"['CCC(C)O', '.', 'OCCO']","[0, 0, 0, 0, 0, 0, 20, 1, 29]"
pva,C(C)C(C)(O),ethylene_glycol,OCCO,74.0,10.0,32.9,40.0,75,6.7,5.906976744,198.300283,"['CCC(C)O', '.', 'OCCO']",['OCCO'],"['CCC(C)O', '.', 'OCCO']","[0, 0, 0, 0, 0, 0, 20, 1, 29]"
pva,C(C)C(C)(O),ethylene_glycol,OCCO,74.0,10.0,32.9,40.0,75,6.7,5.936842105,203.125,"['CCC(C)O', '.', 'OCCO']",['OCCO'],"['CCC(C)O', '.', 'OCCO']","[0, 0, 0, 0, 0, 0, 20, 1, 29]"
pva,C(C)C(C)(O),ethylene_glycol,OCCO,74.0,10.0,32.9,40.0,80,6.7,6.905263158,62.5,"['CCC(C)O', '.', 'OCCO']",['OCCO'],"['CCC(C)O', '.', 'OCCO']","[0, 0, 0, 0, 0, 0, 20, 1, 29]"
pva,C(C)C(C)(O),ethylene_glycol,OCCO,74.0,10.0,32.9,40.0,80,6.7,6.906976744,69.405099,"['CCC(C)O', '.', 'OCCO']",['OCCO'],"['CCC(C)O', '.', 'OCCO']","[0, 0, 0, 0, 0, 0, 20, 1, 29]"
pva,C(C)C(C)(O),ethylene_glycol,OCCO,50.22,15.0,32.9,20.0,50,6.7,0.071137026,1247.213949,"['CCC(C)O', '.', 'OCCO']",['OCCO'],"['CCC(C)O', '.', 'OCCO']","[0, 0, 0, 0, 0, 0, 20, 1, 29]"
pva,C(C)C(C)(O),ethylene_glycol,OCCO,50.22,15.0,32.9,20.0,60,6.7,0.131778426,1070.3364,"['CCC(C)O', '.', 'OCCO']",['OCCO'],"['CCC(C)O', '.', 'OCCO']","[0, 0, 0, 0, 0, 0, 20, 1, 29]"
pva,C(C)C(C)(O),ethylene_glycol,OCCO,50.22,15.0,32.9,20.0,70,6.7,0.212244898,934.285707,"['CCC(C)O', '.', 'OCCO']",['OCCO'],"['CCC(C)O', '.', 'OCCO']","[0, 0, 0, 0, 0, 0, 20, 1, 29]"
pva,C(C)C(C)(O),ethylene_glycol,OCCO,50.22,15.0,32.9,10.0,70,6.7,0.308510638,841.121495,"['CCC(C)O', '.', 'OCCO']",['OCCO'],"['CCC(C)O', '.', 'OCCO']","[0, 0, 0, 0, 0, 0, 20, 1, 29]"
pva,C(C)C(C)(O),ethylene_glycol,OCCO,50.22,15.0,32.9,20.0,80,6.7,0.35451895,600.617229,"['CCC(C)O', '.', 'OCCO']",['OCCO'],"['CCC(C)O', '.', 'OCCO']","[0, 0, 0, 0, 0, 0, 20, 1, 29]"
pva,C(C)C(C)(O),ethylene_glycol,OCCO,50.22,15.0,32.9,20.0,70,6.7,0.414893617,925.233645,"['CCC(C)O', '.', 'OCCO']",['OCCO'],"['CCC(C)O', '.', 'OCCO']","[0, 0, 0, 0, 0, 0, 20, 1, 29]"
pva,C(C)C(C)(O),ethylene_glycol,OCCO,50.22,15.0,32.9,40.0,70,6.7,0.670212766,2551.401869,"['CCC(C)O', '.', 'OCCO']",['OCCO'],"['CCC(C)O', '.', 'OCCO']","[0, 0, 0, 0, 0, 0, 20, 1, 29]"
pva,C(C)C(C)(O),ethylene_glycol,OCCO,50.22,15.0,32.9,60.0,70,6.7,0.989361702,2242.990654,"['CCC(C)O', '.', 'OCCO']",['OCCO'],"['CCC(C)O', '.', 'OCCO']","[0, 0, 0, 0, 0, 0, 20, 1, 29]"
pva,C(C)C(C)(O),ethylene_glycol,OCCO,50.22,15.0,32.9,80.0,70,6.7,1.382978723,5495.327103,"['CCC(C)O', '.', 'OCCO']",['OCCO'],"['CCC(C)O', '.', 'OCCO']","[0, 0, 0, 0, 0, 0, 20, 1, 29]"
pva,C(C)C(C)(O),ethylene_glycol,OCCO,74.0,100.0,32.9,10.0,70,6.7,0.422619048,1063.333333,"['CCC(C)O', '.', 'OCCO']",['OCCO'],"['CCC(C)O', '.', 'OCCO']","[0, 0, 0, 0, 0, 0, 20, 1, 29]"
pva,C(C)C(C)(O),ethylene_glycol,OCCO,74.0,100.0,32.9,20.0,70,6.7,0.833333333,1200.0,"['CCC(C)O', '.', 'OCCO']",['OCCO'],"['CCC(C)O', '.', 'OCCO']","[0, 0, 0, 0, 0, 0, 20, 1, 29]"
pva,C(C)C(C)(O),ethylene_glycol,OCCO,74.0,100.0,32.9,30.0,70,6.7,1.244047619,780.0,"['CCC(C)O', '.', 'OCCO']",['OCCO'],"['CCC(C)O', '.', 'OCCO']","[0, 0, 0, 0, 0, 0, 20, 1, 29]"
pva,C(C)C(C)(O),ethylene_glycol,OCCO,74.0,100.0,32.9,40.0,70,6.7,1.398809524,706.666667,"['CCC(C)O', '.', 'OCCO']",['OCCO'],"['CCC(C)O', '.', 'OCCO']","[0, 0, 0, 0, 0, 0, 20, 1, 29]"
ppo,Cc1cc(C)cc(C)c1O(C),ethylene_glycol,OCCO,89.0,40.0,32.9,5.0,50,0.01,0.011617647,480.0,"['CO', 'Cc1cc(C)cc(C)c1', '.', 'OCCO']",['OCCO'],"['CO', 'Cc1cc(C)cc(C)c1', '.', 'OCCO']","[0, 0, 0, 0, 0, 2, 30, 1, 29]"
ppo,Cc1cc(C)cc(C)c1O(C),ethylene_glycol,OCCO,89.0,40.0,32.9,7.0,50,0.01,0.012720588,440.0,"['CO', 'Cc1cc(C)cc(C)c1', '.', 'OCCO']",['OCCO'],"['CO', 'Cc1cc(C)cc(C)c1', '.', 'OCCO']","[0, 0, 0, 0, 0, 2, 30, 1, 29]"
ppo,Cc1cc(C)cc(C)c1O(C),ethylene_glycol,OCCO,89.0,40.0,32.9,10.0,50,0.01,0.015588235,400.0,"['CO', 'Cc1cc(C)cc(C)c1', '.', 'OCCO']",['OCCO'],"['CO', 'Cc1cc(C)cc(C)c1', '.', 'OCCO']","[0, 0, 0, 0, 0, 2, 30, 1, 29]"
ppo,Cc1cc(C)cc(C)c1O(C),ethylene_glycol,OCCO,89.0,40.0,32.9,12.0,50,0.01,0.016176471,293.333333,"['CO', 'Cc1cc(C)cc(C)c1', '.', 'OCCO']",['OCCO'],"['CO', 'Cc1cc(C)cc(C)c1', '.', 'OCCO']","[0, 0, 0, 0, 0, 2, 30, 1, 29]"
pim-1,CC6(C)CC4(CC(C)(C)c3cc2oc1c(C#N)c(C)c(C)c(C#N)c1oc2cc34)c5cc(O(C))c(O(C))cc56,ethylene_glycol,OCCO,108.2,45.0,32.9,20.0,30,10.0,0.162637362,59.216867,"['CO', 'Cc1c(C)c(C#N)c2c(c1C#N)Oc1cc3c(cc1O2)C1(CC(C)(C)c2ccccc21)CC3(C)C', '.', 'OCCO']",['OCCO'],"['CO', 'Cc1c(C)c(C#N)c2c(c1C#N)Oc1cc3c(cc1O2)C1(CC(C)(C)c2ccccc21)CC3(C)C', '.', 'OCCO']","[0, 0, 0, 0, 0, 2, 31, 1, 29]"
pim-1,CC6(C)CC4(CC(C)(C)c3cc2oc1c(C#N)c(C)c(C)c(C#N)c1oc2cc34)c5cc(O(C))c(O(C))cc56,ethylene_glycol,OCCO,87.8,30.0,32.9,6.56,30,10.0,0.027333333,36.42,"['CO', 'Cc1c(C)c(C#N)c2c(c1C#N)Oc1cc3c(cc1O2)C1(CC(C)(C)c2ccccc21)CC3(C)C', '.', 'OCCO']",['OCCO'],"['CO', 'Cc1c(C)c(C#N)c2c(c1C#N)Oc1cc3c(cc1O2)C1(CC(C)(C)c2ccccc21)CC3(C)C', '.', 'OCCO']","[0, 0, 0, 0, 0, 2, 31, 1, 29]"
pim-1,CC6(C)CC4(CC(C)(C)c3cc2oc1c(C#N)c(C)c(C)c(C#N)c1oc2cc34)c5cc(O(C))c(O(C))cc56,ethylene_glycol,OCCO,87.8,30.0,32.9,18.5,20,10.0,0.041666667,18.75,"['CO', 'Cc1c(C)c(C#N)c2c(c1C#N)Oc1cc3c(cc1O2)C1(CC(C)(C)c2ccccc21)CC3(C)C', '.', 'OCCO']",['OCCO'],"['CO', 'Cc1c(C)c(C#N)c2c(c1C#N)Oc1cc3c(cc1O2)C1(CC(C)(C)c2ccccc21)CC3(C)C', '.', 'OCCO']","[0, 0, 0, 0, 0, 2, 31, 1, 29]"
pim-1,CC6(C)CC4(CC(C)(C)c3cc2oc1c(C#N)c(C)c(C)c(C#N)c1oc2cc34)c5cc(O(C))c(O(C))cc56,ethylene_glycol,OCCO,87.8,30.0,32.9,10.33,30,10.0,0.050666667,39.11,"['CO', 'Cc1c(C)c(C#N)c2c(c1C#N)Oc1cc3c(cc1O2)C1(CC(C)(C)c2ccccc21)CC3(C)C', '.', 'OCCO']",['OCCO'],"['CO', 'Cc1c(C)c(C#N)c2c(c1C#N)Oc1cc3c(cc1O2)C1(CC(C)(C)c2ccccc21)CC3(C)C', '.', 'OCCO']","[0, 0, 0, 0, 0, 2, 31, 1, 29]"
pim-1,CC6(C)CC4(CC(C)(C)c3cc2oc1c(C#N)c(C)c(C)c(C#N)c1oc2cc34)c5cc(O(C))c(O(C))cc56,ethylene_glycol,OCCO,87.8,30.0,32.9,14.04,30,10.0,0.075,40.09,"['CO', 'Cc1c(C)c(C#N)c2c(c1C#N)Oc1cc3c(cc1O2)C1(CC(C)(C)c2ccccc21)CC3(C)C', '.', 'OCCO']",['OCCO'],"['CO', 'Cc1c(C)c(C#N)c2c(c1C#N)Oc1cc3c(cc1O2)C1(CC(C)(C)c2ccccc21)CC3(C)C', '.', 'OCCO']","[0, 0, 0, 0, 0, 2, 31, 1, 29]"
pim-1,CC6(C)CC4(CC(C)(C)c3cc2oc1c(C#N)c(C)c(C)c(C#N)c1oc2cc34)c5cc(O(C))c(O(C))cc56,ethylene_glycol,OCCO,87.8,30.0,32.9,18.5,30,10.0,0.095666667,42.93,"['CO', 'Cc1c(C)c(C#N)c2c(c1C#N)Oc1cc3c(cc1O2)C1(CC(C)(C)c2ccccc21)CC3(C)C', '.', 'OCCO']",['OCCO'],"['CO', 'Cc1c(C)c(C#N)c2c(c1C#N)Oc1cc3c(cc1O2)C1(CC(C)(C)c2ccccc21)CC3(C)C', '.', 'OCCO']","[0, 0, 0, 0, 0, 2, 31, 1, 29]"
pim-1,CC6(C)CC4(CC(C)(C)c3cc2oc1c(C#N)c(C)c(C)c(C#N)c1oc2cc34)c5cc(O(C))c(O(C))cc56,ethylene_glycol,OCCO,87.8,30.0,32.9,18.5,40,10.0,0.117666667,47.34,"['CO', 'Cc1c(C)c(C#N)c2c(c1C#N)Oc1cc3c(cc1O2)C1(CC(C)(C)c2ccccc21)CC3(C)C', '.', 'OCCO']",['OCCO'],"['CO', 'Cc1c(C)c(C#N)c2c(c1C#N)Oc1cc3c(cc1O2)C1(CC(C)(C)c2ccccc21)CC3(C)C', '.', 'OCCO']","[0, 0, 0, 0, 0, 2, 31, 1, 29]"
pim-1,CC6(C)CC4(CC(C)(C)c3cc2oc1c(C#N)c(C)c(C)c(C#N)c1oc2cc34)c5cc(O(C))c(O(C))cc56,ethylene_glycol,OCCO,87.8,30.0,32.9,22.66,30,10.0,0.127333333,51.13,"['CO', 'Cc1c(C)c(C#N)c2c(c1C#N)Oc1cc3c(cc1O2)C1(CC(C)(C)c2ccccc21)CC3(C)C', '.', 'OCCO']",['OCCO'],"['CO', 'Cc1c(C)c(C#N)c2c(c1C#N)Oc1cc3c(cc1O2)C1(CC(C)(C)c2ccccc21)CC3(C)C', '.', 'OCCO']","[0, 0, 0, 0, 0, 2, 31, 1, 29]"
pim-1,CC6(C)CC4(CC(C)(C)c3cc2oc1c(C#N)c(C)c(C)c(C#N)c1oc2cc34)c5cc(O(C))c(O(C))cc56,ethylene_glycol,OCCO,87.8,30.0,32.9,18.5,50,10.0,0.230333333,64.47,"['CO', 'Cc1c(C)c(C#N)c2c(c1C#N)Oc1cc3c(cc1O2)C1(CC(C)(C)c2ccccc21)CC3(C)C', '.', 'OCCO']",['OCCO'],"['CO', 'Cc1c(C)c(C#N)c2c(c1C#N)Oc1cc3c(cc1O2)C1(CC(C)(C)c2ccccc21)CC3(C)C', '.', 'OCCO']","[0, 0, 0, 0, 0, 2, 31, 1, 29]"
chitosan,NC2C(O)C(OC1OC(CO)C(O(C))C(O)C1N)C(CO)OC2(C),ethylene_glycol,OCCO,55.1,160.0,32.9,8.0,30,0.33,0.150769231,191.025641,"['CO', 'O', 'CO', 'CC1OCCC(O)C1N', 'NC1COCCC1O', '.', 'OCCO']",['OCCO'],"['CO', 'O', 'CO', 'CC1OCCC(O)C1N', 'NC1COCCC1O', '.', 'OCCO']","[0, 0, 2, 3, 2, 4, 5, 1, 29]"
chitosan,NC2C(O)C(OC1OC(CO)C(O(C))C(O)C1N)C(CO)OC2(C),ethylene_glycol,OCCO,55.1,100.0,32.9,8.0,30,0.33,0.307692308,103.846154,"['CO', 'O', 'CO', 'CC1OCCC(O)C1N', 'NC1COCCC1O', '.', 'OCCO']",['OCCO'],"['CO', 'O', 'CO', 'CC1OCCC(O)C1N', 'NC1COCCC1O', '.', 'OCCO']","[0, 0, 2, 3, 2, 4, 5, 1, 29]"
chitosan,NC2C(O)C(OC1OC(CO)C(O(C))C(O)C1N)C(CO)OC2(C),ethylene_glycol,OCCO,55.1,60.0,32.9,8.0,30,0.33,0.449230769,62.820513,"['CO', 'O', 'CO', 'CC1OCCC(O)C1N', 'NC1COCCC1O', '.', 'OCCO']",['OCCO'],"['CO', 'O', 'CO', 'CC1OCCC(O)C1N', 'NC1COCCC1O', '.', 'OCCO']","[0, 0, 2, 3, 2, 4, 5, 1, 29]"
chitosan,NC2C(O)C(OC1OC(CO)C(O(C))C(O)C1N)C(CO)OC2(C),ethylene_glycol,OCCO,55.1,50.0,32.9,8.0,30,12.0,0.172680412,127.731959,"['CO', 'O', 'CO', 'CC1OCCC(O)C1N', 'NC1COCCC1O', '.', 'OCCO']",['OCCO'],"['CO', 'O', 'CO', 'CC1OCCC(O)C1N', 'NC1COCCC1O', '.', 'OCCO']","[0, 0, 2, 3, 2, 4, 5, 1, 29]"
chitosan,NC2C(O)C(OC1OC(CO)C(O(C))C(O)C1N)C(CO)OC2(C),ethylene_glycol,OCCO,55.1,50.0,32.9,8.0,30,6.7,0.298969072,86.597938,"['CO', 'O', 'CO', 'CC1OCCC(O)C1N', 'NC1COCCC1O', '.', 'OCCO']",['OCCO'],"['CO', 'O', 'CO', 'CC1OCCC(O)C1N', 'NC1COCCC1O', '.', 'OCCO']","[0, 0, 2, 3, 2, 4, 5, 1, 29]"
chitosan,NC2C(O)C(OC1OC(CO)C(O(C))C(O)C1N)C(CO)OC2(C),ethylene_glycol,OCCO,55.1,50.0,32.9,8.0,30,2.6,0.371134021,73.608247,"['CO', 'O', 'CO', 'CC1OCCC(O)C1N', 'NC1COCCC1O', '.', 'OCCO']",['OCCO'],"['CO', 'O', 'CO', 'CC1OCCC(O)C1N', 'NC1COCCC1O', '.', 'OCCO']","[0, 0, 2, 3, 2, 4, 5, 1, 29]"
chitosan,NC2C(O)C(OC1OC(CO)C(O(C))C(O)C1N)C(CO)OC2(C),ethylene_glycol,OCCO,55.1,50.0,32.9,8.0,30,0.33,0.451030928,62.061856,"['CO', 'O', 'CO', 'CC1OCCC(O)C1N', 'NC1COCCC1O', '.', 'OCCO']",['OCCO'],"['CO', 'O', 'CO', 'CC1OCCC(O)C1N', 'NC1COCCC1O', '.', 'OCCO']","[0, 0, 2, 3, 2, 4, 5, 1, 29]"
chitosan,NC2C(O)C(OC1OC(CO)C(O(C))C(O)C1N)C(CO)OC2(C),ethylene_glycol,OCCO,55.1,50.0,32.9,3.56,30,0.13,0.378,234.26,"['CO', 'O', 'CO', 'CC1OCCC(O)C1N', 'NC1COCCC1O', '.', 'OCCO']",['OCCO'],"['CO', 'O', 'CO', 'CC1OCCC(O)C1N', 'NC1COCCC1O', '.', 'OCCO']","[0, 0, 2, 3, 2, 4, 5, 1, 29]"
chitosan,NC2C(O)C(OC1OC(CO)C(O(C))C(O)C1N)C(CO)OC2(C),ethylene_glycol,OCCO,55.1,50.0,32.9,7.03,30,0.13,0.45,61.674,"['CO', 'O', 'CO', 'CC1OCCC(O)C1N', 'NC1COCCC1O', '.', 'OCCO']",['OCCO'],"['CO', 'O', 'CO', 'CC1OCCC(O)C1N', 'NC1COCCC1O', '.', 'OCCO']","[0, 0, 2, 3, 2, 4, 5, 1, 29]"
chitosan,NC2C(O)C(OC1OC(CO)C(O(C))C(O)C1N)C(CO)OC2(C),ethylene_glycol,OCCO,55.1,50.0,32.9,12.32,30,0.13,0.567,28.318,"['CO', 'O', 'CO', 'CC1OCCC(O)C1N', 'NC1COCCC1O', '.', 'OCCO']",['OCCO'],"['CO', 'O', 'CO', 'CC1OCCC(O)C1N', 'NC1COCCC1O', '.', 'OCCO']","[0, 0, 2, 3, 2, 4, 5, 1, 29]"
chitosan,NC2C(O)C(OC1OC(CO)C(O(C))C(O)C1N)C(CO)OC2(C),ethylene_glycol,OCCO,55.1,50.0,32.9,24.47,30,0.13,0.702,8.077,"['CO', 'O', 'CO', 'CC1OCCC(O)C1N', 'NC1COCCC1O', '.', 'OCCO']",['OCCO'],"['CO', 'O', 'CO', 'CC1OCCC(O)C1N', 'NC1COCCC1O', '.', 'OCCO']","[0, 0, 2, 3, 2, 4, 5, 1, 29]"
chitosan,NC2C(O)C(OC1OC(CO)C(O(C))C(O)C1N)C(CO)OC2(C),ethylene_glycol,OCCO,55.1,50.0,32.9,35.63,30,0.13,0.819,4.18,"['CO', 'O', 'CO', 'CC1OCCC(O)C1N', 'NC1COCCC1O', '.', 'OCCO']",['OCCO'],"['CO', 'O', 'CO', 'CC1OCCC(O)C1N', 'NC1COCCC1O', '.', 'OCCO']","[0, 0, 2, 3, 2, 4, 5, 1, 29]"
chitosan,NC2C(O)C(OC1OC(CO)C(O(C))C(O)C1N)C(CO)OC2(C),ethylene_glycol,OCCO,55.1,30.0,32.9,8.0,30,0.33,0.547692308,56.410256,"['CO', 'O', 'CO', 'CC1OCCC(O)C1N', 'NC1COCCC1O', '.', 'OCCO']",['OCCO'],"['CO', 'O', 'CO', 'CC1OCCC(O)C1N', 'NC1COCCC1O', '.', 'OCCO']","[0, 0, 2, 3, 2, 4, 5, 1, 29]"
chitosan,NC2C(O)C(OC1OC(CO)C(O(C))C(O)C1N)C(CO)OC2(C),ethylene_glycol,OCCO,55.1,30.0,32.9,10.0,25,3.0,0.093,575.0,"['CO', 'O', 'CO', 'CC1OCCC(O)C1N', 'NC1COCCC1O', '.', 'OCCO']",['OCCO'],"['CO', 'O', 'CO', 'CC1OCCC(O)C1N', 'NC1COCCC1O', '.', 'OCCO']","[0, 0, 2, 3, 2, 4, 5, 1, 29]"
pva,C(C)C(C)(O),ethylene_glycol,OCCO,58.9,30.0,32.9,10.0,25,3.0,0.12,354.0,"['CCC(C)O', '.', 'OCCO']",['OCCO'],"['CCC(C)O', '.', 'OCCO']","[0, 0, 0, 0, 0, 0, 20, 1, 29]"
chitosan,NC2C(O)C(OC1OC(CO)C(O(C))C(O)C1N)C(CO)OC2(C),ethylene_glycol,OCCO,55.1,30.0,32.9,20.0,25,3.0,0.223076923,129.932719,"['CO', 'O', 'CO', 'CC1OCCC(O)C1N', 'NC1COCCC1O', '.', 'OCCO']",['OCCO'],"['CO', 'O', 'CO', 'CC1OCCC(O)C1N', 'NC1COCCC1O', '.', 'OCCO']","[0, 0, 2, 3, 2, 4, 5, 1, 29]"
chitosan,NC2C(O)C(OC1OC(CO)C(O(C))C(O)C1N)C(CO)OC2(C),ethylene_glycol,OCCO,55.1,30.0,32.9,30.0,25,3.0,0.288461538,64.229718,"['CO', 'O', 'CO', 'CC1OCCC(O)C1N', 'NC1COCCC1O', '.', 'OCCO']",['OCCO'],"['CO', 'O', 'CO', 'CC1OCCC(O)C1N', 'NC1COCCC1O', '.', 'OCCO']","[0, 0, 2, 3, 2, 4, 5, 1, 29]"
chitosan,NC2C(O)C(OC1OC(CO)C(O(C))C(O)C1N)C(CO)OC2(C),ethylene_glycol,OCCO,55.1,30.0,32.9,50.0,25,3.0,0.426923077,24.234824,"['CO', 'O', 'CO', 'CC1OCCC(O)C1N', 'NC1COCCC1O', '.', 'OCCO']",['OCCO'],"['CO', 'O', 'CO', 'CC1OCCC(O)C1N', 'NC1COCCC1O', '.', 'OCCO']","[0, 0, 2, 3, 2, 4, 5, 1, 29]"
chitosan,NC2C(O)C(OC1OC(CO)C(O(C))C(O)C1N)C(CO)OC2(C),ethylene_glycol,OCCO,55.1,30.0,32.9,70.0,25,3.0,0.588461538,2.554591,"['CO', 'O', 'CO', 'CC1OCCC(O)C1N', 'NC1COCCC1O', '.', 'OCCO']",['OCCO'],"['CO', 'O', 'CO', 'CC1OCCC(O)C1N', 'NC1COCCC1O', '.', 'OCCO']","[0, 0, 2, 3, 2, 4, 5, 1, 29]"
chitosan,NC2C(O)C(OC1OC(CO)C(O(C))C(O)C1N)C(CO)OC2(C),ethylene_glycol,OCCO,55.1,30.0,32.9,90.0,25,3.0,0.776923077,1.1,"['CO', 'O', 'CO', 'CC1OCCC(O)C1N', 'NC1COCCC1O', '.', 'OCCO']",['OCCO'],"['CO', 'O', 'CO', 'CC1OCCC(O)C1N', 'NC1COCCC1O', '.', 'OCCO']","[0, 0, 2, 3, 2, 4, 5, 1, 29]"
chitosan,NC2C(O)C(OC1OC(CO)C(O(C))C(O)C1N)C(CO)OC2(C),ethylene_glycol,OCCO,55.1,10.0,32.9,5.0,80,6.7,0.156521739,1288.2,"['CO', 'O', 'CO', 'CC1OCCC(O)C1N', 'NC1COCCC1O', '.', 'OCCO']",['OCCO'],"['CO', 'O', 'CO', 'CC1OCCC(O)C1N', 'NC1COCCC1O', '.', 'OCCO']","[0, 0, 2, 3, 2, 4, 5, 1, 29]"
chitosan,NC2C(O)C(OC1OC(CO)C(O(C))C(O)C1N)C(CO)OC2(C),ethylene_glycol,OCCO,55.1,10.0,32.9,20.0,30,6.7,0.264724919,4529.333333,"['CO', 'O', 'CO', 'CC1OCCC(O)C1N', 'NC1COCCC1O', '.', 'OCCO']",['OCCO'],"['CO', 'O', 'CO', 'CC1OCCC(O)C1N', 'NC1COCCC1O', '.', 'OCCO']","[0, 0, 2, 3, 2, 4, 5, 1, 29]"
chitosan,NC2C(O)C(OC1OC(CO)C(O(C))C(O)C1N)C(CO)OC2(C),ethylene_glycol,OCCO,55.1,10.0,32.9,20.0,45,6.7,0.445954693,4529.333333,"['CO', 'O', 'CO', 'CC1OCCC(O)C1N', 'NC1COCCC1O', '.', 'OCCO']",['OCCO'],"['CO', 'O', 'CO', 'CC1OCCC(O)C1N', 'NC1COCCC1O', '.', 'OCCO']","[0, 0, 2, 3, 2, 4, 5, 1, 29]"
chitosan,NC2C(O)C(OC1OC(CO)C(O(C))C(O)C1N)C(CO)OC2(C),ethylene_glycol,OCCO,55.1,10.0,32.9,10.0,80,6.7,0.614492754,1337.086957,"['CO', 'O', 'CO', 'CC1OCCC(O)C1N', 'NC1COCCC1O', '.', 'OCCO']",['OCCO'],"['CO', 'O', 'CO', 'CC1OCCC(O)C1N', 'NC1COCCC1O', '.', 'OCCO']","[0, 0, 2, 3, 2, 4, 5, 1, 29]"
chitosan,NC2C(O)C(OC1OC(CO)C(O(C))C(O)C1N)C(CO)OC2(C),ethylene_glycol,OCCO,55.1,10.0,32.9,20.0,60,6.7,0.688673139,796.0,"['CO', 'O', 'CO', 'CC1OCCC(O)C1N', 'NC1COCCC1O', '.', 'OCCO']",['OCCO'],"['CO', 'O', 'CO', 'CC1OCCC(O)C1N', 'NC1COCCC1O', '.', 'OCCO']","[0, 0, 2, 3, 2, 4, 5, 1, 29]"