Polymer,Polymer_SMILES,Solvent,Solvent_SMILES,Contact_angle,Thickness,Solvent_solubility_parameter,xw_(wt%),Temperature,Permeate_pressure,J_total_flux,a_separation_factor,Polymer_BRICS,Solvent_BRICS,PS_pair_BRICS,PS_tokenized_BRICS
alginate,O=C(O)C1OC(C)C(O)C(O)C1O(C).O=C(O)C1OC(C)C(O)C(O)C1O(C),ipa,CC(C)O,37.37,50.0,23.5,20.0,30,13.3,0.1242,223.0,"['CO', 'O=CO', 'CC1OCCC(O)C1O', '.', 'CC(C)O']",['CC(C)O'],"['CO', 'O=CO', 'CC1OCCC(O)C1O', '.', 'CC(C)O']","[0, 0, 0, 0, 2, 21, 22, 1, 6]"
alginate,O=C(O)C1OC(C)C(O)C(O)C1O(C).O=C(O)C1OC(C)C(O)C(O)C1O(C),ipa,CC(C)O,37.37,50.0,23.5,30.0,30,13.3,0.1701,127.0,"['CO', 'O=CO', 'CC1OCCC(O)C1O', '.', 'CC(C)O']",['CC(C)O'],"['CO', 'O=CO', 'CC1OCCC(O)C1O', '.', 'CC(C)O']","[0, 0, 0, 0, 2, 21, 22, 1, 6]"
alginate,O=C(O)C1OC(C)C(O)C(O)C1O(C).O=C(O)C1OC(C)C(O)C(O)C1O(C),ipa,CC(C)O,37.37,50.0,23.5,40.0,30,13.3,0.2411,38.0,"['CO', 'O=CO', 'CC1OCCC(O)C1O', '.', 'CC(C)O']",['CC(C)O'],"['CO', 'O=CO', 'CC1OCCC(O)C1O', '.', 'CC(C)O']","[0, 0, 0, 0, 2, 21, 22, 1, 6]"
alginate,O=C(O)C1OC(C)C(O)C(O)C1O(C).O=C(O)C1OC(C)C(O)C(O)C1O(C),ipa,CC(C)O,37.37,50.0,23.5,50.0,30,13.3,0.3536,25.0,"['CO', 'O=CO', 'CC1OCCC(O)C1O', '.', 'CC(C)O']",['CC(C)O'],"['CO', 'O=CO', 'CC1OCCC(O)C1O', '.', 'CC(C)O']","[0, 0, 0, 0, 2, 21, 22, 1, 6]"
alginate,O=C(O)C1OC(C)C(O)C(O)C1O(C).O=C(O)C1OC(C)C(O)C(O)C1O(C),ipa,CC(C)O,37.37,50.0,23.5,20.0,30,13.3,0.085,223.0,"['CO', 'O=CO', 'CC1OCCC(O)C1O', '.', 'CC(C)O']",['CC(C)O'],"['CO', 'O=CO', 'CC1OCCC(O)C1O', '.', 'CC(C)O']","[0, 0, 0, 0, 2, 21, 22, 1, 6]"
alginate,O=C(O)C1OC(C)C(O)C(O)C1O(C).O=C(O)C1OC(C)C(O)C(O)C1O(C),ipa,CC(C)O,37.37,50.0,23.5,10.0,40,13.3,0.107,355.0,"['CO', 'O=CO', 'CC1OCCC(O)C1O', '.', 'CC(C)O']",['CC(C)O'],"['CO', 'O=CO', 'CC1OCCC(O)C1O', '.', 'CC(C)O']","[0, 0, 0, 0, 2, 21, 22, 1, 6]"
alginate,O=C(O)C1OC(C)C(O)C(O)C1O(C).O=C(O)C1OC(C)C(O)C(O)C1O(C),ipa,CC(C)O,37.37,50.0,23.5,30.0,30,13.3,0.109,127.0,"['CO', 'O=CO', 'CC1OCCC(O)C1O', '.', 'CC(C)O']",['CC(C)O'],"['CO', 'O=CO', 'CC1OCCC(O)C1O', '.', 'CC(C)O']","[0, 0, 0, 0, 2, 21, 22, 1, 6]"
alginate,O=C(O)C1OC(C)C(O)C(O)C1O(C).O=C(O)C1OC(C)C(O)C(O)C1O(C),ipa,CC(C)O,37.37,50.0,23.5,10.0,50,13.3,0.121,285.0,"['CO', 'O=CO', 'CC1OCCC(O)C1O', '.', 'CC(C)O']",['CC(C)O'],"['CO', 'O=CO', 'CC1OCCC(O)C1O', '.', 'CC(C)O']","[0, 0, 0, 0, 2, 21, 22, 1, 6]"
alginate,O=C(O)C1OC(C)C(O)C(O)C1O(C).O=C(O)C1OC(C)C(O)C(O)C1O(C),ipa,CC(C)O,37.37,50.0,23.5,30.0,40,13.3,0.122,56.0,"['CO', 'O=CO', 'CC1OCCC(O)C1O', '.', 'CC(C)O']",['CC(C)O'],"['CO', 'O=CO', 'CC1OCCC(O)C1O', '.', 'CC(C)O']","[0, 0, 0, 0, 2, 21, 22, 1, 6]"
alginate,O=C(O)C1OC(C)C(O)C(O)C1O(C).O=C(O)C1OC(C)C(O)C(O)C1O(C),ipa,CC(C)O,37.37,50.0,23.5,20.0,40,13.3,0.131,118.0,"['CO', 'O=CO', 'CC1OCCC(O)C1O', '.', 'CC(C)O']",['CC(C)O'],"['CO', 'O=CO', 'CC1OCCC(O)C1O', '.', 'CC(C)O']","[0, 0, 0, 0, 2, 21, 22, 1, 6]"
alginate,O=C(O)C1OC(C)C(O)C(O)C1O(C).O=C(O)C1OC(C)C(O)C(O)C1O(C),ipa,CC(C)O,37.37,50.0,23.5,40.0,30,13.3,0.145,38.0,"['CO', 'O=CO', 'CC1OCCC(O)C1O', '.', 'CC(C)O']",['CC(C)O'],"['CO', 'O=CO', 'CC1OCCC(O)C1O', '.', 'CC(C)O']","[0, 0, 0, 0, 2, 21, 22, 1, 6]"
alginate,O=C(O)C1OC(C)C(O)C(O)C1O(C).O=C(O)C1OC(C)C(O)C(O)C1O(C),ipa,CC(C)O,37.37,50.0,23.5,20.0,50,13.3,0.157,93.0,"['CO', 'O=CO', 'CC1OCCC(O)C1O', '.', 'CC(C)O']",['CC(C)O'],"['CO', 'O=CO', 'CC1OCCC(O)C1O', '.', 'CC(C)O']","[0, 0, 0, 0, 2, 21, 22, 1, 6]"
alginate,O=C(O)C1OC(C)C(O)C(O)C1O(C).O=C(O)C1OC(C)C(O)C(O)C1O(C),ipa,CC(C)O,37.37,50.0,23.5,50.0,30,13.3,0.177,25.0,"['CO', 'O=CO', 'CC1OCCC(O)C1O', '.', 'CC(C)O']",['CC(C)O'],"['CO', 'O=CO', 'CC1OCCC(O)C1O', '.', 'CC(C)O']","[0, 0, 0, 0, 2, 21, 22, 1, 6]"
alginate,O=C(O)C1OC(C)C(O)C(O)C1O(C).O=C(O)C1OC(C)C(O)C(O)C1O(C),ipa,CC(C)O,37.37,50.0,23.5,30.0,50,13.3,0.182,34.0,"['CO', 'O=CO', 'CC1OCCC(O)C1O', '.', 'CC(C)O']",['CC(C)O'],"['CO', 'O=CO', 'CC1OCCC(O)C1O', '.', 'CC(C)O']","[0, 0, 0, 0, 2, 21, 22, 1, 6]"
alginate,O=C(O)C1OC(C)C(O)C(O)C1O(C).O=C(O)C1OC(C)C(O)C(O)C1O(C),ethanol,CCO,37.37,50.0,26.5,10.0,30,0.06,0.0391,24.0,"['CO', 'O=CO', 'CC1OCCC(O)C1O', '.', 'CCO']",['CCO'],"['CO', 'O=CO', 'CC1OCCC(O)C1O', '.', 'CCO']","[0, 0, 0, 0, 2, 21, 22, 1, 15]"
alginate,O=C(O)C1OC(C)C(O)C(O)C1O(C).O=C(O)C1OC(C)C(O)C(O)C1O(C),ethanol,CCO,37.37,50.0,26.5,10.0,40,0.06,0.0531,17.0,"['CO', 'O=CO', 'CC1OCCC(O)C1O', '.', 'CCO']",['CCO'],"['CO', 'O=CO', 'CC1OCCC(O)C1O', '.', 'CCO']","[0, 0, 0, 0, 2, 21, 22, 1, 15]"
alginate,O=C(O)C1OC(C)C(O)C(O)C1O(C).O=C(O)C1OC(C)C(O)C(O)C1O(C),ipa,CC(C)O,37.37,50.0,23.5,10.0,30,0.06,0.0646,678.0,"['CO', 'O=CO', 'CC1OCCC(O)C1O', '.', 'CC(C)O']",['CC(C)O'],"['CO', 'O=CO', 'CC1OCCC(O)C1O', '.', 'CC(C)O']","[0, 0, 0, 0, 2, 21, 22, 1, 6]"
alginate,O=C(O)C1OC(C)C(O)C(O)C1O(C).O=C(O)C1OC(C)C(O)C(O)C1O(C),ethanol,CCO,37.37,50.0,26.5,10.0,50,0.06,0.0675,13.0,"['CO', 'O=CO', 'CC1OCCC(O)C1O', '.', 'CCO']",['CCO'],"['CO', 'O=CO', 'CC1OCCC(O)C1O', '.', 'CCO']","[0, 0, 0, 0, 2, 21, 22, 1, 15]"
alginate,O=C(O)C1OC(C)C(O)C(O)C1O(C).O=C(O)C1OC(C)C(O)C(O)C1O(C),ethanol,CCO,37.37,50.0,26.5,10.0,60,0.06,0.0843,8.0,"['CO', 'O=CO', 'CC1OCCC(O)C1O', '.', 'CCO']",['CCO'],"['CO', 'O=CO', 'CC1OCCC(O)C1O', '.', 'CCO']","[0, 0, 0, 0, 2, 21, 22, 1, 15]"
alginate,O=C(O)C1OC(C)C(O)C(O)C1O(C).O=C(O)C1OC(C)C(O)C(O)C1O(C),ipa,CC(C)O,37.37,50.0,23.5,10.0,50,0.06,0.0849,278.0,"['CO', 'O=CO', 'CC1OCCC(O)C1O', '.', 'CC(C)O']",['CC(C)O'],"['CO', 'O=CO', 'CC1OCCC(O)C1O', '.', 'CC(C)O']","[0, 0, 0, 0, 2, 21, 22, 1, 6]"
alginate,O=C(O)C1OC(C)C(O)C(O)C1O(C).O=C(O)C1OC(C)C(O)C(O)C1O(C),ipa,CC(C)O,37.37,50.0,23.5,10.0,40,0.06,0.0906,328.0,"['CO', 'O=CO', 'CC1OCCC(O)C1O', '.', 'CC(C)O']",['CC(C)O'],"['CO', 'O=CO', 'CC1OCCC(O)C1O', '.', 'CC(C)O']","[0, 0, 0, 0, 2, 21, 22, 1, 6]"
alginate,O=C(O)C1OC(C)C(O)C(O)C1O(C).O=C(O)C1OC(C)C(O)C(O)C1O(C),ipa,CC(C)O,37.37,50.0,23.5,10.0,60,0.06,0.145,148.0,"['CO', 'O=CO', 'CC1OCCC(O)C1O', '.', 'CC(C)O']",['CC(C)O'],"['CO', 'O=CO', 'CC1OCCC(O)C1O', '.', 'CC(C)O']","[0, 0, 0, 0, 2, 21, 22, 1, 6]"
chitosan,NC2C(O)C(OC1OC(CO)C(O(C))C(O)C1N)C(CO)OC2(C),ipa,CC(C)O,55.1,40.0,23.5,5.0,30,13.3,0.032,422.0,"['CO', 'O', 'CO', 'CC1OCCC(O)C1N', 'NC1COCCC1O', '.', 'CC(C)O']",['CC(C)O'],"['CO', 'O', 'CO', 'CC1OCCC(O)C1N', 'NC1COCCC1O', '.', 'CC(C)O']","[0, 0, 2, 3, 2, 4, 5, 1, 6]"
chitosan,NC2C(O)C(OC1OC(CO)C(O(C))C(O)C1N)C(CO)OC2(C),ipa,CC(C)O,55.1,40.0,23.5,10.0,30,13.3,0.0478,171.0,"['CO', 'O', 'CO', 'CC1OCCC(O)C1N', 'NC1COCCC1O', '.', 'CC(C)O']",['CC(C)O'],"['CO', 'O', 'CO', 'CC1OCCC(O)C1N', 'NC1COCCC1O', '.', 'CC(C)O']","[0, 0, 2, 3, 2, 4, 5, 1, 6]"
chitosan,NC2C(O)C(OC1OC(CO)C(O(C))C(O)C1N)C(CO)OC2(C),ipa,CC(C)O,55.1,40.0,23.5,15.0,30,13.3,0.0649,66.115702,"['CO', 'O', 'CO', 'CC1OCCC(O)C1N', 'NC1COCCC1O', '.', 'CC(C)O']",['CC(C)O'],"['CO', 'O', 'CO', 'CC1OCCC(O)C1N', 'NC1COCCC1O', '.', 'CC(C)O']","[0, 0, 2, 3, 2, 4, 5, 1, 6]"
chitosan,NC2C(O)C(OC1OC(CO)C(O(C))C(O)C1N)C(CO)OC2(C),ipa,CC(C)O,55.1,40.0,23.5,20.0,30,13.3,0.0808,41.322314,"['CO', 'O', 'CO', 'CC1OCCC(O)C1N', 'NC1COCCC1O', '.', 'CC(C)O']",['CC(C)O'],"['CO', 'O', 'CO', 'CC1OCCC(O)C1N', 'NC1COCCC1O', '.', 'CC(C)O']","[0, 0, 2, 3, 2, 4, 5, 1, 6]"
chitosan,NC2C(O)C(OC1OC(CO)C(O(C))C(O)C1N)C(CO)OC2(C),ipa,CC(C)O,55.1,40.0,23.5,10.0,40,13.3,0.0863,104.8,"['CO', 'O', 'CO', 'CC1OCCC(O)C1N', 'NC1COCCC1O', '.', 'CC(C)O']",['CC(C)O'],"['CO', 'O', 'CO', 'CC1OCCC(O)C1N', 'NC1COCCC1O', '.', 'CC(C)O']","[0, 0, 2, 3, 2, 4, 5, 1, 6]"
chitosan,NC2C(O)C(OC1OC(CO)C(O(C))C(O)C1N)C(CO)OC2(C),ipa,CC(C)O,55.1,40.0,23.5,25.0,30,13.3,0.1043,24.793388,"['CO', 'O', 'CO', 'CC1OCCC(O)C1N', 'NC1COCCC1O', '.', 'CC(C)O']",['CC(C)O'],"['CO', 'O', 'CO', 'CC1OCCC(O)C1N', 'NC1COCCC1O', '.', 'CC(C)O']","[0, 0, 2, 3, 2, 4, 5, 1, 6]"
chitosan,NC2C(O)C(OC1OC(CO)C(O(C))C(O)C1N)C(CO)OC2(C),ipa,CC(C)O,55.1,40.0,23.5,30.0,30,13.3,0.1094,24.793388,"['CO', 'O', 'CO', 'CC1OCCC(O)C1N', 'NC1COCCC1O', '.', 'CC(C)O']",['CC(C)O'],"['CO', 'O', 'CO', 'CC1OCCC(O)C1N', 'NC1COCCC1O', '.', 'CC(C)O']","[0, 0, 2, 3, 2, 4, 5, 1, 6]"
chitosan,NC2C(O)C(OC1OC(CO)C(O(C))C(O)C1N)C(CO)OC2(C),ipa,CC(C)O,55.1,40.0,23.5,10.0,50,13.3,0.141,72.9,"['CO', 'O', 'CO', 'CC1OCCC(O)C1N', 'NC1COCCC1O', '.', 'CC(C)O']",['CC(C)O'],"['CO', 'O', 'CO', 'CC1OCCC(O)C1N', 'NC1COCCC1O', '.', 'CC(C)O']","[0, 0, 2, 3, 2, 4, 5, 1, 6]"
chitosan,NC2C(O)C(OC1OC(CO)C(O(C))C(O)C1N)C(CO)OC2(C),ipa,CC(C)O,55.1,40.0,23.5,5.0,30,13.3,0.0285,1469.849246,"['CO', 'O', 'CO', 'CC1OCCC(O)C1N', 'NC1COCCC1O', '.', 'CC(C)O']",['CC(C)O'],"['CO', 'O', 'CO', 'CC1OCCC(O)C1N', 'NC1COCCC1O', '.', 'CC(C)O']","[0, 0, 2, 3, 2, 4, 5, 1, 6]"
chitosan,NC2C(O)C(OC1OC(CO)C(O(C))C(O)C1N)C(CO)OC2(C),ipa,CC(C)O,55.1,40.0,23.5,10.0,30,13.3,0.0314,540.201005,"['CO', 'O', 'CO', 'CC1OCCC(O)C1N', 'NC1COCCC1O', '.', 'CC(C)O']",['CC(C)O'],"['CO', 'O', 'CO', 'CC1OCCC(O)C1N', 'NC1COCCC1O', '.', 'CC(C)O']","[0, 0, 2, 3, 2, 4, 5, 1, 6]"
chitosan,NC2C(O)C(OC1OC(CO)C(O(C))C(O)C1N)C(CO)OC2(C),ipa,CC(C)O,55.1,40.0,23.5,15.0,30,13.3,0.0537,175.879397,"['CO', 'O', 'CO', 'CC1OCCC(O)C1N', 'NC1COCCC1O', '.', 'CC(C)O']",['CC(C)O'],"['CO', 'O', 'CO', 'CC1OCCC(O)C1N', 'NC1COCCC1O', '.', 'CC(C)O']","[0, 0, 2, 3, 2, 4, 5, 1, 6]"
chitosan,NC2C(O)C(OC1OC(CO)C(O(C))C(O)C1N)C(CO)OC2(C),ipa,CC(C)O,55.1,40.0,23.5,20.0,30,13.3,0.0732,50.251256,"['CO', 'O', 'CO', 'CC1OCCC(O)C1N', 'NC1COCCC1O', '.', 'CC(C)O']",['CC(C)O'],"['CO', 'O', 'CO', 'CC1OCCC(O)C1N', 'NC1COCCC1O', '.', 'CC(C)O']","[0, 0, 2, 3, 2, 4, 5, 1, 6]"
chitosan,NC2C(O)C(OC1OC(CO)C(O(C))C(O)C1N)C(CO)OC2(C),ipa,CC(C)O,55.1,40.0,23.5,25.0,30,13.3,0.1031,50.251256,"['CO', 'O', 'CO', 'CC1OCCC(O)C1N', 'NC1COCCC1O', '.', 'CC(C)O']",['CC(C)O'],"['CO', 'O', 'CO', 'CC1OCCC(O)C1N', 'NC1COCCC1O', '.', 'CC(C)O']","[0, 0, 2, 3, 2, 4, 5, 1, 6]"
chitosan,NC2C(O)C(OC1OC(CO)C(O(C))C(O)C1N)C(CO)OC2(C),ipa,CC(C)O,55.1,40.0,23.5,5.0,30,13.3,0.0466,617.169374,"['CO', 'O', 'CO', 'CC1OCCC(O)C1N', 'NC1COCCC1O', '.', 'CC(C)O']",['CC(C)O'],"['CO', 'O', 'CO', 'CC1OCCC(O)C1N', 'NC1COCCC1O', '.', 'CC(C)O']","[0, 0, 2, 3, 2, 4, 5, 1, 6]"
chitosan,NC2C(O)C(OC1OC(CO)C(O(C))C(O)C1N)C(CO)OC2(C),ipa,CC(C)O,55.1,40.0,23.5,10.0,30,13.3,0.0731,265.0,"['CO', 'O', 'CO', 'CC1OCCC(O)C1N', 'NC1COCCC1O', '.', 'CC(C)O']",['CC(C)O'],"['CO', 'O', 'CO', 'CC1OCCC(O)C1N', 'NC1COCCC1O', '.', 'CC(C)O']","[0, 0, 2, 3, 2, 4, 5, 1, 6]"
chitosan,NC2C(O)C(OC1OC(CO)C(O(C))C(O)C1N)C(CO)OC2(C),ipa,CC(C)O,55.1,40.0,23.5,20.0,30,13.3,0.1079,97.447796,"['CO', 'O', 'CO', 'CC1OCCC(O)C1N', 'NC1COCCC1O', '.', 'CC(C)O']",['CC(C)O'],"['CO', 'O', 'CO', 'CC1OCCC(O)C1N', 'NC1COCCC1O', '.', 'CC(C)O']","[0, 0, 2, 3, 2, 4, 5, 1, 6]"
chitosan,NC2C(O)C(OC1OC(CO)C(O(C))C(O)C1N)C(CO)OC2(C),ipa,CC(C)O,55.1,40.0,23.5,10.0,40,13.3,0.1084,105.0,"['CO', 'O', 'CO', 'CC1OCCC(O)C1N', 'NC1COCCC1O', '.', 'CC(C)O']",['CC(C)O'],"['CO', 'O', 'CO', 'CC1OCCC(O)C1N', 'NC1COCCC1O', '.', 'CC(C)O']","[0, 0, 2, 3, 2, 4, 5, 1, 6]"
chitosan,NC2C(O)C(OC1OC(CO)C(O(C))C(O)C1N)C(CO)OC2(C),ipa,CC(C)O,55.1,40.0,23.5,10.0,50,13.3,0.1274,73.0,"['CO', 'O', 'CO', 'CC1OCCC(O)C1N', 'NC1COCCC1O', '.', 'CC(C)O']",['CC(C)O'],"['CO', 'O', 'CO', 'CC1OCCC(O)C1N', 'NC1COCCC1O', '.', 'CC(C)O']","[0, 0, 2, 3, 2, 4, 5, 1, 6]"
chitosan,NC2C(O)C(OC1OC(CO)C(O(C))C(O)C1N)C(CO)OC2(C),ipa,CC(C)O,55.1,40.0,23.5,10.0,60,13.3,0.1659,58.0,"['CO', 'O', 'CO', 'CC1OCCC(O)C1N', 'NC1COCCC1O', '.', 'CC(C)O']",['CC(C)O'],"['CO', 'O', 'CO', 'CC1OCCC(O)C1N', 'NC1COCCC1O', '.', 'CC(C)O']","[0, 0, 2, 3, 2, 4, 5, 1, 6]"
chitosan,NC2C(O)C(OC1OC(CO)C(O(C))C(O)C1N)C(CO)OC2(C),ipa,CC(C)O,55.1,40.0,23.5,30.0,30,13.3,0.1669,32.482599,"['CO', 'O', 'CO', 'CC1OCCC(O)C1N', 'NC1COCCC1O', '.', 'CC(C)O']",['CC(C)O'],"['CO', 'O', 'CO', 'CC1OCCC(O)C1N', 'NC1COCCC1O', '.', 'CC(C)O']","[0, 0, 2, 3, 2, 4, 5, 1, 6]"
chitosan,NC2C(O)C(OC1OC(CO)C(O(C))C(O)C1N)C(CO)OC2(C),ipa,CC(C)O,55.1,40.0,23.5,40.0,30,13.3,0.2152,32.482599,"['CO', 'O', 'CO', 'CC1OCCC(O)C1N', 'NC1COCCC1O', '.', 'CC(C)O']",['CC(C)O'],"['CO', 'O', 'CO', 'CC1OCCC(O)C1N', 'NC1COCCC1O', '.', 'CC(C)O']","[0, 0, 2, 3, 2, 4, 5, 1, 6]"
alginate,O=C(O)C1OC(C)C(O)C(O)C1O(C).O=C(O)C1OC(C)C(O)C(O)C1O(C),ethanol,CCO,37.37,1.8,26.5,10.0,45,1.0,0.2783,562.790698,"['CO', 'O=CO', 'CC1OCCC(O)C1O', '.', 'CCO']",['CCO'],"['CO', 'O=CO', 'CC1OCCC(O)C1O', '.', 'CCO']","[0, 0, 0, 0, 2, 21, 22, 1, 15]"
alginate,O=C(O)C1OC(C)C(O)C(O)C1O(C).O=C(O)C1OC(C)C(O)C(O)C1O(C),ipa,CC(C)O,37.37,1.8,23.5,10.0,45,1.0,0.3152,1974.883721,"['CO', 'O=CO', 'CC1OCCC(O)C1O', '.', 'CC(C)O']",['CC(C)O'],"['CO', 'O=CO', 'CC1OCCC(O)C1O', '.', 'CC(C)O']","[0, 0, 0, 0, 2, 21, 22, 1, 6]"
pva,C(C)C(C)(O),ethanol,CCO,74.0,1.8,26.5,10.0,45,1.0,0.4028,235.348837,"['CCC(C)O', '.', 'CCO']",['CCO'],"['CCC(C)O', '.', 'CCO']","[0, 0, 0, 0, 0, 0, 20, 1, 15]"
alginate,O=C(O)C1OC(C)C(O)C(O)C1O(C).O=C(O)C1OC(C)C(O)C(O)C1O(C),n-butanol,CCCCO,37.37,1.8,23.1,10.0,45,1.0,0.4765,859.534884,"['CO', 'O=CO', 'CC1OCCC(O)C1O', '.', 'CCCCO']",['CCCCO'],"['CO', 'O=CO', 'CC1OCCC(O)C1O', '.', 'CCCCO']","[0, 0, 0, 0, 2, 21, 22, 1, 8]"
pva,C(C)C(C)(O),ipa,CC(C)O,74.0,1.8,23.5,10.0,45,1.0,0.4788,511.627907,"['CCC(C)O', '.', 'CC(C)O']",['CC(C)O'],"['CCC(C)O', '.', 'CC(C)O']","[0, 0, 0, 0, 0, 0, 20, 1, 6]"
pva,C(C)C(C)(O),n-butanol,CCCCO,74.0,1.8,23.1,10.0,45,1.0,0.624,573.023256,"['CCC(C)O', '.', 'CCCCO']",['CCCCO'],"['CCC(C)O', '.', 'CCCCO']","[0, 0, 0, 0, 0, 0, 20, 1, 8]"
ptmsp,C/C(C)=C(C)/[Si](C)(C)C,n-butanol,CCCCO,100.0,20.0,23.1,99.0,25,2.7,0.0809,0.01393,"['CCC', 'CC[Si](C)(C)C', '.', 'CCCCO']",['CCCCO'],"['CCC', 'CC[Si](C)(C)C', '.', 'CCCCO']","[0, 0, 0, 0, 0, 24, 25, 1, 8]"
ptmsp,C/C(C)=C(C)/[Si](C)(C)C,n-butanol,CCCCO,100.0,20.0,23.1,98.5,25,2.7,0.0879,0.013592,"['CCC', 'CC[Si](C)(C)C', '.', 'CCCCO']",['CCCCO'],"['CCC', 'CC[Si](C)(C)C', '.', 'CCCCO']","[0, 0, 0, 0, 0, 24, 25, 1, 8]"
ptmsp,C/C(C)=C(C)/[Si](C)(C)C,n-butanol,CCCCO,100.0,20.0,23.1,98.0,25,2.7,0.102,0.012613,"['CCC', 'CC[Si](C)(C)C', '.', 'CCCCO']",['CCCCO'],"['CCC', 'CC[Si](C)(C)C', '.', 'CCCCO']","[0, 0, 0, 0, 0, 24, 25, 1, 8]"
ptmsp,C/C(C)=C(C)/[Si](C)(C)C,n-butanol,CCCCO,100.0,20.0,23.1,97.5,25,2.7,0.1329,0.012174,"['CCC', 'CC[Si](C)(C)C', '.', 'CCCCO']",['CCCCO'],"['CCC', 'CC[Si](C)(C)C', '.', 'CCCCO']","[0, 0, 0, 0, 0, 24, 25, 1, 8]"
ptmsp,C/C(C)=C(C)/[Si](C)(C)C,n-butanol,CCCCO,100.0,20.0,23.1,97.0,25,2.7,0.1596,0.012444,"['CCC', 'CC[Si](C)(C)C', '.', 'CCCCO']",['CCCCO'],"['CCC', 'CC[Si](C)(C)C', '.', 'CCCCO']","[0, 0, 0, 0, 0, 24, 25, 1, 8]"
ptmsp,C/C(C)=C(C)/[Si](C)(C)C,n-butanol,CCCCO,100.0,20.0,23.1,96.5,25,2.7,0.2003,0.012227,"['CCC', 'CC[Si](C)(C)C', '.', 'CCCCO']",['CCCCO'],"['CCC', 'CC[Si](C)(C)C', '.', 'CCCCO']","[0, 0, 0, 0, 0, 24, 25, 1, 8]"
ptmsp,C/C(C)=C(C)/[Si](C)(C)C,n-butanol,CCCCO,100.0,20.0,23.1,96.0,25,2.7,0.2466,0.012227,"['CCC', 'CC[Si](C)(C)C', '.', 'CCCCO']",['CCCCO'],"['CCC', 'CC[Si](C)(C)C', '.', 'CCCCO']","[0, 0, 0, 0, 0, 24, 25, 1, 8]"
ptmsp,C/C(C)=C(C)/[Si](C)(C)C,n-butanol,CCCCO,100.0,20.0,23.1,95.5,25,2.7,0.2972,0.012069,"['CCC', 'CC[Si](C)(C)C', '.', 'CCCCO']",['CCCCO'],"['CCC', 'CC[Si](C)(C)C', '.', 'CCCCO']","[0, 0, 0, 0, 0, 24, 25, 1, 8]"
ptmsp,C/C(C)=C(C)/[Si](C)(C)C,n-butanol,CCCCO,100.0,20.0,23.1,95.0,25,2.7,0.3646,0.011864,"['CCC', 'CC[Si](C)(C)C', '.', 'CCCCO']",['CCCCO'],"['CCC', 'CC[Si](C)(C)C', '.', 'CCCCO']","[0, 0, 0, 0, 0, 24, 25, 1, 8]"
ptmsp,C/C(C)=C(C)/[Si](C)(C)C,n-butanol,CCCCO,100.0,20.0,23.1,94.5,25,2.7,0.4348,0.011667,"['CCC', 'CC[Si](C)(C)C', '.', 'CCCCO']",['CCCCO'],"['CCC', 'CC[Si](C)(C)C', '.', 'CCCCO']","[0, 0, 0, 0, 0, 24, 25, 1, 8]"
ptmsp,C/C(C)=C(C)/[Si](C)(C)C,n-butanol,CCCCO,100.0,20.0,23.1,94.0,25,2.7,0.5191,0.011155,"['CCC', 'CC[Si](C)(C)C', '.', 'CCCCO']",['CCCCO'],"['CCC', 'CC[Si](C)(C)C', '.', 'CCCCO']","[0, 0, 0, 0, 0, 24, 25, 1, 8]"
ptmsp,C/C(C)=C(C)/[Si](C)(C)C,n-butanol,CCCCO,100.0,22.0,23.1,99.0,25,2.7,0.06,0.019231,"['CCC', 'CC[Si](C)(C)C', '.', 'CCCCO']",['CCCCO'],"['CCC', 'CC[Si](C)(C)C', '.', 'CCCCO']","[0, 0, 0, 0, 0, 24, 25, 1, 8]"
ptmsp,C/C(C)=C(C)/[Si](C)(C)C,n-butanol,CCCCO,100.0,22.0,23.1,98.5,25,2.7,0.06,0.018182,"['CCC', 'CC[Si](C)(C)C', '.', 'CCCCO']",['CCCCO'],"['CCC', 'CC[Si](C)(C)C', '.', 'CCCCO']","[0, 0, 0, 0, 0, 24, 25, 1, 8]"
ptmsp,C/C(C)=C(C)/[Si](C)(C)C,n-butanol,CCCCO,100.0,22.0,23.1,99.5,25,2.7,0.078,0.012821,"['CCC', 'CC[Si](C)(C)C', '.', 'CCCCO']",['CCCCO'],"['CCC', 'CC[Si](C)(C)C', '.', 'CCCCO']","[0, 0, 0, 0, 0, 24, 25, 1, 8]"
ptmsp,C/C(C)=C(C)/[Si](C)(C)C,n-butanol,CCCCO,100.0,22.0,23.1,99.7,25,2.7,0.124,0.019608,"['CCC', 'CC[Si](C)(C)C', '.', 'CCCCO']",['CCCCO'],"['CCC', 'CC[Si](C)(C)C', '.', 'CCCCO']","[0, 0, 0, 0, 0, 24, 25, 1, 8]"
ptmsp,C/C(C)=C(C)/[Si](C)(C)C,n-butanol,CCCCO,100.0,22.0,23.1,94.0,25,2.7,0.436,0.016393,"['CCC', 'CC[Si](C)(C)C', '.', 'CCCCO']",['CCCCO'],"['CCC', 'CC[Si](C)(C)C', '.', 'CCCCO']","[0, 0, 0, 0, 0, 24, 25, 1, 8]"
ptmsp,C/C(C)=C(C)/[Si](C)(C)C,n-butanol,CCCCO,100.0,22.0,23.1,99.7,70,2.7,0.762,0.021277,"['CCC', 'CC[Si](C)(C)C', '.', 'CCCCO']",['CCCCO'],"['CCC', 'CC[Si](C)(C)C', '.', 'CCCCO']","[0, 0, 0, 0, 0, 24, 25, 1, 8]"
ptmsp,C/C(C)=C(C)/[Si](C)(C)C,n-butanol,CCCCO,100.0,22.0,23.1,99.5,70,2.7,0.831,0.016129,"['CCC', 'CC[Si](C)(C)C', '.', 'CCCCO']",['CCCCO'],"['CCC', 'CC[Si](C)(C)C', '.', 'CCCCO']","[0, 0, 0, 0, 0, 24, 25, 1, 8]"
ptmsp,C/C(C)=C(C)/[Si](C)(C)C,n-butanol,CCCCO,100.0,22.0,23.1,99.0,70,2.7,0.999,0.014286,"['CCC', 'CC[Si](C)(C)C', '.', 'CCCCO']",['CCCCO'],"['CCC', 'CC[Si](C)(C)C', '.', 'CCCCO']","[0, 0, 0, 0, 0, 24, 25, 1, 8]"
ptmsp,C/C(C)=C(C)/[Si](C)(C)C,n-butanol,CCCCO,100.0,22.0,23.1,98.5,70,2.7,1.03,0.014286,"['CCC', 'CC[Si](C)(C)C', '.', 'CCCCO']",['CCCCO'],"['CCC', 'CC[Si](C)(C)C', '.', 'CCCCO']","[0, 0, 0, 0, 0, 24, 25, 1, 8]"
ptmsp,C/C(C)=C(C)/[Si](C)(C)C,n-butanol,CCCCO,100.0,22.0,23.1,94.0,70,2.7,1.512,0.02439,"['CCC', 'CC[Si](C)(C)C', '.', 'CCCCO']",['CCCCO'],"['CCC', 'CC[Si](C)(C)C', '.', 'CCCCO']","[0, 0, 0, 0, 0, 24, 25, 1, 8]"
torlon,O=C(Nc2ccc(Oc1ccc(C)cc1)cc2)c4ccc3c(=O)n(C)c(=O)c3c4.O=C(Nc1cccc(C)c1)c3ccc2c(=O)n(C)c(=O)c2c3,ipa,CC(C)O,87.5,50.0,23.5,15.0,60,1.0,0.0082,2828.0,"['Cc1ccccc1', 'O', 'N', 'Cc1ccccc1', 'c1ccccc1', 'C=O', 'CN1C(=O)c2ccccc2C1=O', '.', 'CC(C)O']",['CC(C)O'],"['Cc1ccccc1', 'O', 'N', 'Cc1ccccc1', 'c1ccccc1', 'C=O', 'CN1C(=O)c2ccccc2C1=O', '.', 'CC(C)O']","[10, 3, 26, 10, 12, 17, 16, 1, 6]"
torlon,O=C(Nc2ccc(Oc1ccc(C)cc1)cc2)c4ccc3c(=O)n(C)c(=O)c3c4.O=C(Nc1cccc(C)c1)c3ccc2c(=O)n(C)c(=O)c2c3,ethanol,CCO,87.5,50.0,26.5,15.0,60,1.0,0.0085,2155.0,"['Cc1ccccc1', 'O', 'N', 'Cc1ccccc1', 'c1ccccc1', 'C=O', 'CN1C(=O)c2ccccc2C1=O', '.', 'CCO']",['CCO'],"['Cc1ccccc1', 'O', 'N', 'Cc1ccccc1', 'c1ccccc1', 'C=O', 'CN1C(=O)c2ccccc2C1=O', '.', 'CCO']","[10, 3, 26, 10, 12, 17, 16, 1, 15]"
torlon,O=C(Nc2ccc(Oc1ccc(C)cc1)cc2)c4ccc3c(=O)n(C)c(=O)c3c4.O=C(Nc1cccc(C)c1)c3ccc2c(=O)n(C)c(=O)c2c3,n-butanol,CCCCO,87.5,50.0,23.1,15.0,60,1.0,0.0113,5661.0,"['Cc1ccccc1', 'O', 'N', 'Cc1ccccc1', 'c1ccccc1', 'C=O', 'CN1C(=O)c2ccccc2C1=O', '.', 'CCCCO']",['CCCCO'],"['Cc1ccccc1', 'O', 'N', 'Cc1ccccc1', 'c1ccccc1', 'C=O', 'CN1C(=O)c2ccccc2C1=O', '.', 'CCCCO']","[10, 3, 26, 10, 12, 17, 16, 1, 8]"
p84,Cc2ccc(Cc1ccc(C)cc1)cc2.Cc1cc(C)ccc1n5c(=O)c4ccc(C(=O)c3ccc2c(=O)n(C)c(=O)c2c3)cc4c5=O,ipa,CC(C)O,82.3,50.0,23.5,15.0,60,1.0,0.0152,5661.0,"['CN1C(=O)c2ccccc2C1=O', 'C=O', 'Cc1cccc(C)c1', 'O=C1NC(=O)c2ccccc21', '.', 'CC(C)O']",['CC(C)O'],"['CN1C(=O)c2ccccc2C1=O', 'C=O', 'Cc1cccc(C)c1', 'O=C1NC(=O)c2ccccc21', '.', 'CC(C)O']","[0, 0, 0, 16, 17, 18, 19, 1, 6]"
p84,Cc2ccc(Cc1ccc(C)cc1)cc2.Cc1cc(C)ccc1n5c(=O)c4ccc(C(=O)c3ccc2c(=O)n(C)c(=O)c2c3)cc4c5=O,n-butanol,CCCCO,82.3,50.0,23.1,15.0,60,1.0,0.018,5661.0,"['CN1C(=O)c2ccccc2C1=O', 'C=O', 'Cc1cccc(C)c1', 'O=C1NC(=O)c2ccccc21', '.', 'CCCCO']",['CCCCO'],"['CN1C(=O)c2ccccc2C1=O', 'C=O', 'Cc1cccc(C)c1', 'O=C1NC(=O)c2ccccc21', '.', 'CCCCO']","[0, 0, 0, 16, 17, 18, 19, 1, 8]"
p84,Cc2ccc(Cc1ccc(C)cc1)cc2.Cc1cc(C)ccc1n5c(=O)c4ccc(C(=O)c3ccc2c(=O)n(C)c(=O)c2c3)cc4c5=O,ethanol,CCO,82.3,50.0,26.5,15.0,60,1.0,0.019,2822.0,"['CN1C(=O)c2ccccc2C1=O', 'C=O', 'Cc1cccc(C)c1', 'O=C1NC(=O)c2ccccc21', '.', 'CCO']",['CCO'],"['CN1C(=O)c2ccccc2C1=O', 'C=O', 'Cc1cccc(C)c1', 'O=C1NC(=O)c2ccccc21', '.', 'CCO']","[0, 0, 0, 16, 17, 18, 19, 1, 15]"