Polymer,Polymer_SMILES,Solvent,Solvent_SMILES,Contact_angle,Thickness,Solvent_solubility_parameter,xw_(wt%),Temperature,Permeate_pressure,J_total_flux,a_separation_factor,Polymer_BRICS,Solvent_BRICS,PS_pair_BRICS,PS_tokenized_BRICS
pdms,[Si](C)(C)(C)O(C),n-butanol,CCCCO,108.2,11.5,23.1,98.5,55,0.6,0.6926829,0.023782,"['CO[Si](C)(C)C', '.', 'CCCCO']",['CCCCO'],"['CO[Si](C)(C)C', '.', 'CCCCO']","[0, 0, 0, 0, 0, 0, 7, 1, 8]"
pdms,[Si](C)(C)(C)O(C),ethanol,CCO,109.0,10.0,26.5,95.0,40,3.0,0.468208092,0.138462,"['CO[Si](C)(C)C', '.', 'CCO']",['CCO'],"['CO[Si](C)(C)C', '.', 'CCO']","[0, 0, 0, 0, 0, 0, 7, 1, 15]"
pdms,[Si](C)(C)(C)O(C),n-butanol,CCCCO,109.0,10.0,23.1,95.0,40,3.0,0.589595376,0.05,"['CO[Si](C)(C)C', '.', 'CCCCO']",['CCCCO'],"['CO[Si](C)(C)C', '.', 'CCCCO']","[0, 0, 0, 0, 0, 0, 7, 1, 8]"
pva,C(C)C(C)(O),methanol,CO,74.0,3.0,29.6,15.0,50,3.0,0.270805067,30.434783,"['CCC(C)O', '.', 'CO']",['CO'],"['CCC(C)O', '.', 'CO']","[0, 0, 0, 0, 0, 0, 20, 1, 2]"
pva,C(C)C(C)(O),methanol,CO,74.0,3.0,29.6,15.0,60,3.0,0.270805067,30.434783,"['CCC(C)O', '.', 'CO']",['CO'],"['CCC(C)O', '.', 'CO']","[0, 0, 0, 0, 0, 0, 20, 1, 2]"
pva,C(C)C(C)(O),methanol,CO,74.0,3.0,29.6,1.0,50,3.0,0.271142921,1176.811594,"['CCC(C)O', '.', 'CO']",['CO'],"['CCC(C)O', '.', 'CO']","[0, 0, 0, 0, 0, 0, 20, 1, 2]"
pva,C(C)C(C)(O),methanol,CO,74.0,3.0,29.6,10.0,50,3.0,0.285797323,101.449275,"['CCC(C)O', '.', 'CO']",['CO'],"['CCC(C)O', '.', 'CO']","[0, 0, 0, 0, 0, 0, 20, 1, 2]"
pva,C(C)C(C)(O),methanol,CO,74.0,3.0,29.6,3.0,50,3.0,0.290745611,831.884058,"['CCC(C)O', '.', 'CO']",['CO'],"['CCC(C)O', '.', 'CO']","[0, 0, 0, 0, 0, 0, 20, 1, 2]"
pva,C(C)C(C)(O),methanol,CO,74.0,3.0,29.6,5.0,50,3.0,0.300587959,547.826087,"['CCC(C)O', '.', 'CO']",['CO'],"['CCC(C)O', '.', 'CO']","[0, 0, 0, 0, 0, 0, 20, 1, 2]"
pva,C(C)C(C)(O),methanol,CO,74.0,3.0,29.6,20.0,50,3.0,0.330898221,20.289855,"['CCC(C)O', '.', 'CO']",['CO'],"['CCC(C)O', '.', 'CO']","[0, 0, 0, 0, 0, 0, 20, 1, 2]"
pva,C(C)C(C)(O),methanol,CO,74.0,3.0,29.6,20.0,60,3.0,0.332481466,20.289855,"['CCC(C)O', '.', 'CO']",['CO'],"['CCC(C)O', '.', 'CO']","[0, 0, 0, 0, 0, 0, 20, 1, 2]"
pva,C(C)C(C)(O),methanol,CO,74.0,3.0,29.6,20.0,70,3.0,0.332481466,20.289855,"['CCC(C)O', '.', 'CO']",['CO'],"['CCC(C)O', '.', 'CO']","[0, 0, 0, 0, 0, 0, 20, 1, 2]"
pva,C(C)C(C)(O),methanol,CO,74.0,3.0,29.6,1.0,60,3.0,0.419519863,1247.826087,"['CCC(C)O', '.', 'CO']",['CO'],"['CCC(C)O', '.', 'CO']","[0, 0, 0, 0, 0, 0, 20, 1, 2]"
pva,C(C)C(C)(O),methanol,CO,74.0,3.0,29.6,10.0,60,3.0,0.432726751,111.594203,"['CCC(C)O', '.', 'CO']",['CO'],"['CCC(C)O', '.', 'CO']","[0, 0, 0, 0, 0, 0, 20, 1, 2]"
pva,C(C)C(C)(O),methanol,CO,74.0,3.0,29.6,3.0,60,3.0,0.43333507,882.608696,"['CCC(C)O', '.', 'CO']",['CO'],"['CCC(C)O', '.', 'CO']","[0, 0, 0, 0, 0, 0, 20, 1, 2]"
pva,C(C)C(C)(O),methanol,CO,74.0,3.0,29.6,5.0,60,3.0,0.475679607,547.826087,"['CCC(C)O', '.', 'CO']",['CO'],"['CCC(C)O', '.', 'CO']","[0, 0, 0, 0, 0, 0, 20, 1, 2]"
pva,C(C)C(C)(O),methanol,CO,74.0,3.0,29.6,15.0,70,3.0,0.487656633,30.434783,"['CCC(C)O', '.', 'CO']",['CO'],"['CCC(C)O', '.', 'CO']","[0, 0, 0, 0, 0, 0, 20, 1, 2]"
pva,C(C)C(C)(O),methanol,CO,74.0,3.0,29.6,3.0,70,3.0,0.5798413,913.043478,"['CCC(C)O', '.', 'CO']",['CO'],"['CCC(C)O', '.', 'CO']","[0, 0, 0, 0, 0, 0, 20, 1, 2]"
pva,C(C)C(C)(O),methanol,CO,74.0,3.0,29.6,1.0,70,3.0,0.580966706,1318.84058,"['CCC(C)O', '.', 'CO']",['CO'],"['CCC(C)O', '.', 'CO']","[0, 0, 0, 0, 0, 0, 20, 1, 2]"
pva,C(C)C(C)(O),methanol,CO,74.0,3.0,29.6,5.0,70,3.0,0.615752926,547.826087,"['CCC(C)O', '.', 'CO']",['CO'],"['CCC(C)O', '.', 'CO']","[0, 0, 0, 0, 0, 0, 20, 1, 2]"
pva,C(C)C(C)(O),methanol,CO,74.0,3.0,29.6,10.0,70,3.0,0.663587992,111.594203,"['CCC(C)O', '.', 'CO']",['CO'],"['CCC(C)O', '.', 'CO']","[0, 0, 0, 0, 0, 0, 20, 1, 2]"
pdms,[Si](C)(C)(C)O(C),ipa,CC(C)O,108.08219,25.0,23.5,99.0,30,1.0,0.212258065,0.055319,"['CO[Si](C)(C)C', '.', 'CC(C)O']",['CC(C)O'],"['CO[Si](C)(C)C', '.', 'CC(C)O']","[0, 0, 0, 0, 0, 0, 7, 1, 6]"
pdms,[Si](C)(C)(C)O(C),ipa,CC(C)O,108.08219,25.0,23.5,96.0,30,1.0,0.30375,0.077143,"['CO[Si](C)(C)C', '.', 'CC(C)O']",['CC(C)O'],"['CO[Si](C)(C)C', '.', 'CC(C)O']","[0, 0, 0, 0, 0, 0, 7, 1, 6]"
pdms,[Si](C)(C)(C)O(C),ipa,CC(C)O,108.08219,25.0,23.5,96.0,30,1.0,0.307096774,0.076471,"['CO[Si](C)(C)C', '.', 'CC(C)O']",['CC(C)O'],"['CO[Si](C)(C)C', '.', 'CC(C)O']","[0, 0, 0, 0, 0, 0, 7, 1, 6]"
pdms,[Si](C)(C)(C)O(C),ipa,CC(C)O,108.08219,25.0,23.5,93.0,30,1.0,0.429032258,0.086667,"['CO[Si](C)(C)C', '.', 'CC(C)O']",['CC(C)O'],"['CO[Si](C)(C)C', '.', 'CC(C)O']","[0, 0, 0, 0, 0, 0, 7, 1, 6]"
pdms,[Si](C)(C)(C)O(C),ipa,CC(C)O,108.08219,25.0,23.5,96.0,40,1.0,0.46125,0.082653,"['CO[Si](C)(C)C', '.', 'CC(C)O']",['CC(C)O'],"['CO[Si](C)(C)C', '.', 'CC(C)O']","[0, 0, 0, 0, 0, 0, 7, 1, 6]"
pdms,[Si](C)(C)(C)O(C),ipa,CC(C)O,108.08219,25.0,23.5,91.0,30,1.0,0.609677419,0.096296,"['CO[Si](C)(C)C', '.', 'CC(C)O']",['CC(C)O'],"['CO[Si](C)(C)C', '.', 'CC(C)O']","[0, 0, 0, 0, 0, 0, 7, 1, 6]"
pdms,[Si](C)(C)(C)O(C),ipa,CC(C)O,108.08219,25.0,23.5,96.0,50,1.0,0.63,0.092571,"['CO[Si](C)(C)C', '.', 'CC(C)O']",['CC(C)O'],"['CO[Si](C)(C)C', '.', 'CC(C)O']","[0, 0, 0, 0, 0, 0, 7, 1, 6]"
pdms,[Si](C)(C)(C)O(C),ipa,CC(C)O,108.08219,25.0,23.5,96.0,60,1.0,0.793125,0.100621,"['CO[Si](C)(C)C', '.', 'CC(C)O']",['CC(C)O'],"['CO[Si](C)(C)C', '.', 'CC(C)O']","[0, 0, 0, 0, 0, 0, 7, 1, 6]"
pdms,[Si](C)(C)(C)O(C),methanol,CO,108.08219,1.5,29.6,95.0,20,10.0,0.441142857,0.132593,"['CO[Si](C)(C)C', '.', 'CO']",['CO'],"['CO[Si](C)(C)C', '.', 'CO']","[0, 0, 0, 0, 0, 0, 7, 1, 2]"
pdms,[Si](C)(C)(C)O(C),ethanol,CCO,108.08219,1.5,26.5,95.0,20,10.0,0.441142857,0.105294,"['CO[Si](C)(C)C', '.', 'CCO']",['CCO'],"['CO[Si](C)(C)C', '.', 'CCO']","[0, 0, 0, 0, 0, 0, 7, 1, 15]"
ppms,C[Si](C)(O(C))c1ccccc1,methanol,CO,121.2,1.5,29.6,95.0,20,10.0,0.537142857,0.325455,"['CO[Si](C)(C)c1ccccc1', '.', 'CO']",['CO'],"['CO[Si](C)(C)c1ccccc1', '.', 'CO']","[0, 0, 0, 0, 0, 0, 28, 1, 2]"
ppms,C[Si](C)(O(C))c1ccccc1,ethanol,CCO,121.2,1.5,26.5,95.0,20,10.0,0.578285714,0.1432,"['CO[Si](C)(C)c1ccccc1', '.', 'CCO']",['CCO'],"['CO[Si](C)(C)c1ccccc1', '.', 'CCO']","[0, 0, 0, 0, 0, 0, 28, 1, 15]"
pdms,[Si](C)(C)(C)O(C),methanol,CO,108.08219,1.5,29.6,95.0,30,10.0,0.660571429,0.137692,"['CO[Si](C)(C)C', '.', 'CO']",['CO'],"['CO[Si](C)(C)C', '.', 'CO']","[0, 0, 0, 0, 0, 0, 7, 1, 2]"
pdms,[Si](C)(C)(C)O(C),ethanol,CCO,108.08219,1.5,26.5,95.0,30,10.0,0.660571429,0.111875,"['CO[Si](C)(C)C', '.', 'CCO']",['CCO'],"['CO[Si](C)(C)C', '.', 'CCO']","[0, 0, 0, 0, 0, 0, 7, 1, 15]"
ppms,C[Si](C)(O(C))c1ccccc1,methanol,CO,121.2,1.5,29.6,95.0,30,10.0,0.797714286,0.238667,"['CO[Si](C)(C)c1ccccc1', '.', 'CO']",['CO'],"['CO[Si](C)(C)c1ccccc1', '.', 'CO']","[0, 0, 0, 0, 0, 0, 28, 1, 2]"
ppms,C[Si](C)(O(C))c1ccccc1,ethanol,CCO,121.2,1.5,26.5,95.0,30,10.0,0.893714286,0.162727,"['CO[Si](C)(C)c1ccccc1', '.', 'CCO']",['CCO'],"['CO[Si](C)(C)c1ccccc1', '.', 'CCO']","[0, 0, 0, 0, 0, 0, 28, 1, 15]"
pdms,[Si](C)(C)(C)O(C),methanol,CO,108.08219,1.5,29.6,95.0,40,10.0,1.140571429,0.1432,"['CO[Si](C)(C)C', '.', 'CO']",['CO'],"['CO[Si](C)(C)C', '.', 'CO']","[0, 0, 0, 0, 0, 0, 7, 1, 2]"
pdms,[Si](C)(C)(C)O(C),ethanol,CCO,108.08219,1.5,26.5,95.0,40,10.0,1.140571429,0.108485,"['CO[Si](C)(C)C', '.', 'CCO']",['CCO'],"['CO[Si](C)(C)C', '.', 'CCO']","[0, 0, 0, 0, 0, 0, 7, 1, 15]"
pdms,[Si](C)(C)(C)O(C),methanol,CO,108.08219,1.5,29.6,95.0,45,10.0,1.346285714,0.1432,"['CO[Si](C)(C)C', '.', 'CO']",['CO'],"['CO[Si](C)(C)C', '.', 'CO']","[0, 0, 0, 0, 0, 0, 7, 1, 2]"
ppms,C[Si](C)(O(C))c1ccccc1,methanol,CO,121.2,1.5,29.6,95.0,40,10.0,1.36,0.210588,"['CO[Si](C)(C)c1ccccc1', '.', 'CO']",['CO'],"['CO[Si](C)(C)c1ccccc1', '.', 'CO']","[0, 0, 0, 0, 0, 0, 28, 1, 2]"
pdms,[Si](C)(C)(C)O(C),ethanol,CCO,108.08219,1.5,26.5,95.0,45,10.0,1.387428571,0.108485,"['CO[Si](C)(C)C', '.', 'CCO']",['CCO'],"['CO[Si](C)(C)C', '.', 'CCO']","[0, 0, 0, 0, 0, 0, 7, 1, 15]"
ppms,C[Si](C)(O(C))c1ccccc1,ethanol,CCO,121.2,1.5,26.5,95.0,40,10.0,1.428571429,0.170476,"['CO[Si](C)(C)c1ccccc1', '.', 'CCO']",['CCO'],"['CO[Si](C)(C)c1ccccc1', '.', 'CCO']","[0, 0, 0, 0, 0, 0, 28, 1, 15]"
ppms,C[Si](C)(O(C))c1ccccc1,methanol,CO,121.2,1.5,29.6,95.0,45,10.0,1.730285714,0.198889,"['CO[Si](C)(C)c1ccccc1', '.', 'CO']",['CO'],"['CO[Si](C)(C)c1ccccc1', '.', 'CO']","[0, 0, 0, 0, 0, 0, 28, 1, 2]"
ppms,C[Si](C)(O(C))c1ccccc1,ethanol,CCO,121.2,1.5,26.5,95.0,45,10.0,1.785142857,0.162727,"['CO[Si](C)(C)c1ccccc1', '.', 'CCO']",['CCO'],"['CO[Si](C)(C)c1ccccc1', '.', 'CCO']","[0, 0, 0, 0, 0, 0, 28, 1, 15]"
pdms,[Si](C)(C)(C)O(C),methanol,CO,108.08219,8.0,29.6,99.7,30,9.0,0.366492147,0.130435,"['CO[Si](C)(C)C', '.', 'CO']",['CO'],"['CO[Si](C)(C)C', '.', 'CO']","[0, 0, 0, 0, 0, 0, 7, 1, 2]"
pdms,[Si](C)(C)(C)O(C),methanol,CO,108.08219,8.0,29.6,99.0,30,9.0,0.418848168,0.295775,"['CO[Si](C)(C)C', '.', 'CO']",['CO'],"['CO[Si](C)(C)C', '.', 'CO']","[0, 0, 0, 0, 0, 0, 7, 1, 2]"
pdms,[Si](C)(C)(C)O(C),methanol,CO,108.08219,8.0,29.6,99.0,35,9.0,0.497382199,0.308824,"['CO[Si](C)(C)C', '.', 'CO']",['CO'],"['CO[Si](C)(C)C', '.', 'CO']","[0, 0, 0, 0, 0, 0, 7, 1, 2]"
pdms,[Si](C)(C)(C)O(C),methanol,CO,108.08219,8.0,29.6,97.0,30,9.0,0.54973822,0.538462,"['CO[Si](C)(C)C', '.', 'CO']",['CO'],"['CO[Si](C)(C)C', '.', 'CO']","[0, 0, 0, 0, 0, 0, 7, 1, 2]"
pdms,[Si](C)(C)(C)O(C),methanol,CO,108.08219,8.0,29.6,99.7,35,9.0,0.54973822,0.135484,"['CO[Si](C)(C)C', '.', 'CO']",['CO'],"['CO[Si](C)(C)C', '.', 'CO']","[0, 0, 0, 0, 0, 0, 7, 1, 2]"
pdms,[Si](C)(C)(C)O(C),methanol,CO,108.08219,8.0,29.6,99.7,40,9.0,0.641361257,0.138158,"['CO[Si](C)(C)C', '.', 'CO']",['CO'],"['CO[Si](C)(C)C', '.', 'CO']","[0, 0, 0, 0, 0, 0, 7, 1, 2]"
pdms,[Si](C)(C)(C)O(C),methanol,CO,108.08219,8.0,29.6,99.0,40,9.0,0.654450262,0.323077,"['CO[Si](C)(C)C', '.', 'CO']",['CO'],"['CO[Si](C)(C)C', '.', 'CO']","[0, 0, 0, 0, 0, 0, 7, 1, 2]"
pdms,[Si](C)(C)(C)O(C),methanol,CO,108.08219,8.0,29.6,97.0,35,9.0,0.732984293,0.567568,"['CO[Si](C)(C)C', '.', 'CO']",['CO'],"['CO[Si](C)(C)C', '.', 'CO']","[0, 0, 0, 0, 0, 0, 7, 1, 2]"
pdms,[Si](C)(C)(C)O(C),methanol,CO,108.08219,8.0,29.6,97.0,40,9.0,0.876963351,0.567568,"['CO[Si](C)(C)C', '.', 'CO']",['CO'],"['CO[Si](C)(C)C', '.', 'CO']","[0, 0, 0, 0, 0, 0, 7, 1, 2]"
pdms,[Si](C)(C)(C)O(C),methanol,CO,108.08219,8.0,29.6,99.0,45,9.0,0.994764398,0.344262,"['CO[Si](C)(C)C', '.', 'CO']",['CO'],"['CO[Si](C)(C)C', '.', 'CO']","[0, 0, 0, 0, 0, 0, 7, 1, 2]"
pdms,[Si](C)(C)(C)O(C),methanol,CO,108.08219,8.0,29.6,99.7,45,9.0,0.994764398,0.146853,"['CO[Si](C)(C)C', '.', 'CO']",['CO'],"['CO[Si](C)(C)C', '.', 'CO']","[0, 0, 0, 0, 0, 0, 7, 1, 2]"
pdms,[Si](C)(C)(C)O(C),methanol,CO,108.08219,8.0,29.6,97.0,45,9.0,1.544502618,0.6,"['CO[Si](C)(C)C', '.', 'CO']",['CO'],"['CO[Si](C)(C)C', '.', 'CO']","[0, 0, 0, 0, 0, 0, 7, 1, 2]"
pdms,[Si](C)(C)(C)O(C),methanol,CO,108.08219,8.0,29.6,99.7,50,9.0,1.64921466,0.15,"['CO[Si](C)(C)C', '.', 'CO']",['CO'],"['CO[Si](C)(C)C', '.', 'CO']","[0, 0, 0, 0, 0, 0, 7, 1, 2]"
pdms,[Si](C)(C)(C)O(C),methanol,CO,108.08219,8.0,29.6,99.0,50,9.0,1.727748691,0.355932,"['CO[Si](C)(C)C', '.', 'CO']",['CO'],"['CO[Si](C)(C)C', '.', 'CO']","[0, 0, 0, 0, 0, 0, 7, 1, 2]"
pdms,[Si](C)(C)(C)O(C),methanol,CO,108.08219,8.0,29.6,97.0,50,9.0,2.094240838,0.636364,"['CO[Si](C)(C)C', '.', 'CO']",['CO'],"['CO[Si](C)(C)C', '.', 'CO']","[0, 0, 0, 0, 0, 0, 7, 1, 2]"
pdms,[Si](C)(C)(C)O(C),methanol,CO,108.08219,8.0,29.6,99.7,30,9.0,0.368421053,0.130263,"['CO[Si](C)(C)C', '.', 'CO']",['CO'],"['CO[Si](C)(C)C', '.', 'CO']","[0, 0, 0, 0, 0, 0, 7, 1, 2]"
pdms,[Si](C)(C)(C)O(C),methanol,CO,108.08219,8.0,29.6,99.0,30,9.0,0.389473684,0.3,"['CO[Si](C)(C)C', '.', 'CO']",['CO'],"['CO[Si](C)(C)C', '.', 'CO']","[0, 0, 0, 0, 0, 0, 7, 1, 2]"
pdms,[Si](C)(C)(C)O(C),ethanol,CCO,108.08219,8.0,26.5,99.7,30,9.0,0.515789474,0.341379,"['CO[Si](C)(C)C', '.', 'CCO']",['CCO'],"['CO[Si](C)(C)C', '.', 'CCO']","[0, 0, 0, 0, 0, 0, 7, 1, 15]"
pdms,[Si](C)(C)(C)O(C),methanol,CO,108.08219,8.0,29.6,97.0,30,9.0,0.547368421,0.55,"['CO[Si](C)(C)C', '.', 'CO']",['CO'],"['CO[Si](C)(C)C', '.', 'CO']","[0, 0, 0, 0, 0, 0, 7, 1, 2]"
pdms,[Si](C)(C)(C)O(C),ethanol,CCO,108.08219,8.0,26.5,99.0,30,9.0,0.6,0.61875,"['CO[Si](C)(C)C', '.', 'CCO']",['CCO'],"['CO[Si](C)(C)C', '.', 'CCO']","[0, 0, 0, 0, 0, 0, 7, 1, 15]"
pdms,[Si](C)(C)(C)O(C),ethanol,CCO,108.08219,8.0,26.5,97.0,30,9.0,0.905263158,0.9,"['CO[Si](C)(C)C', '.', 'CCO']",['CCO'],"['CO[Si](C)(C)C', '.', 'CCO']","[0, 0, 0, 0, 0, 0, 7, 1, 15]"
chitosan,NC2C(O)C(OC1OC(CO)C(O(C))C(O)C1N)C(CO)OC2(C),methanol,CO,55.1,26.2,29.6,1.9,25,2.5,0.164018692,3.047847,"['CO', 'O', 'CO', 'CC1OCCC(O)C1N', 'NC1COCCC1O', '.', 'CO']",['CO'],"['CO', 'O', 'CO', 'CC1OCCC(O)C1N', 'NC1COCCC1O', '.', 'CO']","[0, 0, 2, 3, 2, 4, 5, 1, 2]"
chitosan,NC2C(O)C(OC1OC(CO)C(O(C))C(O)C1N)C(CO)OC2(C),methanol,CO,55.1,26.2,29.6,5.0,25,2.5,0.189252336,3.181818,"['CO', 'O', 'CO', 'CC1OCCC(O)C1N', 'NC1COCCC1O', '.', 'CO']",['CO'],"['CO', 'O', 'CO', 'CC1OCCC(O)C1N', 'NC1COCCC1O', '.', 'CO']","[0, 0, 2, 3, 2, 4, 5, 1, 2]"
chitosan,NC2C(O)C(OC1OC(CO)C(O(C))C(O)C1N)C(CO)OC2(C),methanol,CO,55.1,26.2,29.6,9.0,25,2.5,0.210280374,3.449761,"['CO', 'O', 'CO', 'CC1OCCC(O)C1N', 'NC1COCCC1O', '.', 'CO']",['CO'],"['CO', 'O', 'CO', 'CC1OCCC(O)C1N', 'NC1COCCC1O', '.', 'CO']","[0, 0, 2, 3, 2, 4, 5, 1, 2]"
chitosan,NC2C(O)C(OC1OC(CO)C(O(C))C(O)C1N)C(CO)OC2(C),methanol,CO,55.1,26.2,29.6,16.1,25,2.5,0.239719626,4.555024,"['CO', 'O', 'CO', 'CC1OCCC(O)C1N', 'NC1COCCC1O', '.', 'CO']",['CO'],"['CO', 'O', 'CO', 'CC1OCCC(O)C1N', 'NC1COCCC1O', '.', 'CO']","[0, 0, 2, 3, 2, 4, 5, 1, 2]"
chitosan,NC2C(O)C(OC1OC(CO)C(O(C))C(O)C1N)C(CO)OC2(C),methanol,CO,55.1,26.2,29.6,5.0,35,2.5,0.269158879,3.583732,"['CO', 'O', 'CO', 'CC1OCCC(O)C1N', 'NC1COCCC1O', '.', 'CO']",['CO'],"['CO', 'O', 'CO', 'CC1OCCC(O)C1N', 'NC1COCCC1O', '.', 'CO']","[0, 0, 2, 3, 2, 4, 5, 1, 2]"
chitosan,NC2C(O)C(OC1OC(CO)C(O(C))C(O)C1N)C(CO)OC2(C),methanol,CO,55.1,26.2,29.6,1.9,35,2.5,0.285981308,3.215311,"['CO', 'O', 'CO', 'CC1OCCC(O)C1N', 'NC1COCCC1O', '.', 'CO']",['CO'],"['CO', 'O', 'CO', 'CC1OCCC(O)C1N', 'NC1COCCC1O', '.', 'CO']","[0, 0, 2, 3, 2, 4, 5, 1, 2]"
chitosan,NC2C(O)C(OC1OC(CO)C(O(C))C(O)C1N)C(CO)OC2(C),methanol,CO,55.1,26.2,29.6,9.0,35,2.5,0.307009346,3.985646,"['CO', 'O', 'CO', 'CC1OCCC(O)C1N', 'NC1COCCC1O', '.', 'CO']",['CO'],"['CO', 'O', 'CO', 'CC1OCCC(O)C1N', 'NC1COCCC1O', '.', 'CO']","[0, 0, 2, 3, 2, 4, 5, 1, 2]"
chitosan,NC2C(O)C(OC1OC(CO)C(O(C))C(O)C1N)C(CO)OC2(C),methanol,CO,55.1,26.2,29.6,16.1,35,2.5,0.361682243,4.923445,"['CO', 'O', 'CO', 'CC1OCCC(O)C1N', 'NC1COCCC1O', '.', 'CO']",['CO'],"['CO', 'O', 'CO', 'CC1OCCC(O)C1N', 'NC1COCCC1O', '.', 'CO']","[0, 0, 2, 3, 2, 4, 5, 1, 2]"
chitosan,NC2C(O)C(OC1OC(CO)C(O(C))C(O)C1N)C(CO)OC2(C),methanol,CO,55.1,26.2,29.6,26.8,25,2.5,0.361682243,3.985646,"['CO', 'O', 'CO', 'CC1OCCC(O)C1N', 'NC1COCCC1O', '.', 'CO']",['CO'],"['CO', 'O', 'CO', 'CC1OCCC(O)C1N', 'NC1COCCC1O', '.', 'CO']","[0, 0, 2, 3, 2, 4, 5, 1, 2]"
chitosan,NC2C(O)C(OC1OC(CO)C(O(C))C(O)C1N)C(CO)OC2(C),methanol,CO,55.1,26.2,29.6,5.0,45,2.5,0.38271028,3.751196,"['CO', 'O', 'CO', 'CC1OCCC(O)C1N', 'NC1COCCC1O', '.', 'CO']",['CO'],"['CO', 'O', 'CO', 'CC1OCCC(O)C1N', 'NC1COCCC1O', '.', 'CO']","[0, 0, 2, 3, 2, 4, 5, 1, 2]"
chitosan,NC2C(O)C(OC1OC(CO)C(O(C))C(O)C1N)C(CO)OC2(C),methanol,CO,55.1,26.2,29.6,1.9,45,2.5,0.386915888,3.248804,"['CO', 'O', 'CO', 'CC1OCCC(O)C1N', 'NC1COCCC1O', '.', 'CO']",['CO'],"['CO', 'O', 'CO', 'CC1OCCC(O)C1N', 'NC1COCCC1O', '.', 'CO']","[0, 0, 2, 3, 2, 4, 5, 1, 2]"
chitosan,NC2C(O)C(OC1OC(CO)C(O(C))C(O)C1N)C(CO)OC2(C),methanol,CO,55.1,26.2,29.6,9.0,45,2.5,0.420560748,4.287081,"['CO', 'O', 'CO', 'CC1OCCC(O)C1N', 'NC1COCCC1O', '.', 'CO']",['CO'],"['CO', 'O', 'CO', 'CC1OCCC(O)C1N', 'NC1COCCC1O', '.', 'CO']","[0, 0, 2, 3, 2, 4, 5, 1, 2]"
chitosan,NC2C(O)C(OC1OC(CO)C(O(C))C(O)C1N)C(CO)OC2(C),methanol,CO,55.1,26.2,29.6,16.1,45,2.5,0.479439252,5.291866,"['CO', 'O', 'CO', 'CC1OCCC(O)C1N', 'NC1COCCC1O', '.', 'CO']",['CO'],"['CO', 'O', 'CO', 'CC1OCCC(O)C1N', 'NC1COCCC1O', '.', 'CO']","[0, 0, 2, 3, 2, 4, 5, 1, 2]"
chitosan,NC2C(O)C(OC1OC(CO)C(O(C))C(O)C1N)C(CO)OC2(C),methanol,CO,55.1,26.2,29.6,1.9,55,2.5,0.48364486,3.483254,"['CO', 'O', 'CO', 'CC1OCCC(O)C1N', 'NC1COCCC1O', '.', 'CO']",['CO'],"['CO', 'O', 'CO', 'CC1OCCC(O)C1N', 'NC1COCCC1O', '.', 'CO']","[0, 0, 2, 3, 2, 4, 5, 1, 2]"
chitosan,NC2C(O)C(OC1OC(CO)C(O(C))C(O)C1N)C(CO)OC2(C),methanol,CO,55.1,26.2,29.6,26.8,35,2.5,0.538317757,4.38756,"['CO', 'O', 'CO', 'CC1OCCC(O)C1N', 'NC1COCCC1O', '.', 'CO']",['CO'],"['CO', 'O', 'CO', 'CC1OCCC(O)C1N', 'NC1COCCC1O', '.', 'CO']","[0, 0, 2, 3, 2, 4, 5, 1, 2]"
chitosan,NC2C(O)C(OC1OC(CO)C(O(C))C(O)C1N)C(CO)OC2(C),methanol,CO,55.1,26.2,29.6,5.0,55,2.5,0.550934579,4.688995,"['CO', 'O', 'CO', 'CC1OCCC(O)C1N', 'NC1COCCC1O', '.', 'CO']",['CO'],"['CO', 'O', 'CO', 'CC1OCCC(O)C1N', 'NC1COCCC1O', '.', 'CO']","[0, 0, 2, 3, 2, 4, 5, 1, 2]"
chitosan,NC2C(O)C(OC1OC(CO)C(O(C))C(O)C1N)C(CO)OC2(C),methanol,CO,55.1,26.2,29.6,9.0,55,2.5,0.597196262,5.191388,"['CO', 'O', 'CO', 'CC1OCCC(O)C1N', 'NC1COCCC1O', '.', 'CO']",['CO'],"['CO', 'O', 'CO', 'CC1OCCC(O)C1N', 'NC1COCCC1O', '.', 'CO']","[0, 0, 2, 3, 2, 4, 5, 1, 2]"
chitosan,NC2C(O)C(OC1OC(CO)C(O(C))C(O)C1N)C(CO)OC2(C),methanol,CO,55.1,26.2,29.6,16.1,55,2.5,0.622429907,5.894737,"['CO', 'O', 'CO', 'CC1OCCC(O)C1N', 'NC1COCCC1O', '.', 'CO']",['CO'],"['CO', 'O', 'CO', 'CC1OCCC(O)C1N', 'NC1COCCC1O', '.', 'CO']","[0, 0, 2, 3, 2, 4, 5, 1, 2]"
chitosan,NC2C(O)C(OC1OC(CO)C(O(C))C(O)C1N)C(CO)OC2(C),methanol,CO,55.1,26.2,29.6,26.8,45,2.5,0.668691589,4.856459,"['CO', 'O', 'CO', 'CC1OCCC(O)C1N', 'NC1COCCC1O', '.', 'CO']",['CO'],"['CO', 'O', 'CO', 'CC1OCCC(O)C1N', 'NC1COCCC1O', '.', 'CO']","[0, 0, 2, 3, 2, 4, 5, 1, 2]"
chitosan,NC2C(O)C(OC1OC(CO)C(O(C))C(O)C1N)C(CO)OC2(C),methanol,CO,55.1,26.2,29.6,26.8,55,2.5,0.845327103,5.69378,"['CO', 'O', 'CO', 'CC1OCCC(O)C1N', 'NC1COCCC1O', '.', 'CO']",['CO'],"['CO', 'O', 'CO', 'CC1OCCC(O)C1N', 'NC1COCCC1O', '.', 'CO']","[0, 0, 2, 3, 2, 4, 5, 1, 2]"
chitosan,NC2C(O)C(OC1OC(CO)C(O(C))C(O)C1N)C(CO)OC2(C),methanol,CO,55.1,28.4,29.6,5.45,45,2.5,0.21752988,5.646396,"['CO', 'O', 'CO', 'CC1OCCC(O)C1N', 'NC1COCCC1O', '.', 'CO']",['CO'],"['CO', 'O', 'CO', 'CC1OCCC(O)C1N', 'NC1COCCC1O', '.', 'CO']","[0, 0, 2, 3, 2, 4, 5, 1, 2]"
chitosan,NC2C(O)C(OC1OC(CO)C(O(C))C(O)C1N)C(CO)OC2(C),methanol,CO,55.1,28.4,29.6,10.31,45,2.5,0.401593625,4.301595,"['CO', 'O', 'CO', 'CC1OCCC(O)C1N', 'NC1COCCC1O', '.', 'CO']",['CO'],"['CO', 'O', 'CO', 'CC1OCCC(O)C1N', 'NC1COCCC1O', '.', 'CO']","[0, 0, 2, 3, 2, 4, 5, 1, 2]"
chitosan,NC2C(O)C(OC1OC(CO)C(O(C))C(O)C1N)C(CO)OC2(C),methanol,CO,55.1,28.4,29.6,1.99,45,2.5,0.429482072,3.276708,"['CO', 'O', 'CO', 'CC1OCCC(O)C1N', 'NC1COCCC1O', '.', 'CO']",['CO'],"['CO', 'O', 'CO', 'CC1OCCC(O)C1N', 'NC1COCCC1O', '.', 'CO']","[0, 0, 2, 3, 2, 4, 5, 1, 2]"
chitosan,NC2C(O)C(OC1OC(CO)C(O(C))C(O)C1N)C(CO)OC2(C),methanol,CO,55.1,28.4,29.6,1.2,45,2.5,0.647011952,3.523793,"['CO', 'O', 'CO', 'CC1OCCC(O)C1N', 'NC1COCCC1O', '.', 'CO']",['CO'],"['CO', 'O', 'CO', 'CC1OCCC(O)C1N', 'NC1COCCC1O', '.', 'CO']","[0, 0, 2, 3, 2, 4, 5, 1, 2]"
chitosan,NC2C(O)C(OC1OC(CO)C(O(C))C(O)C1N)C(CO)OC2(C),methanol,CO,55.1,28.4,29.6,21.21,45,2.5,0.842231076,3.78723,"['CO', 'O', 'CO', 'CC1OCCC(O)C1N', 'NC1COCCC1O', '.', 'CO']",['CO'],"['CO', 'O', 'CO', 'CC1OCCC(O)C1N', 'NC1COCCC1O', '.', 'CO']","[0, 0, 2, 3, 2, 4, 5, 1, 2]"
chitosan,NC2C(O)C(OC1OC(CO)C(O(C))C(O)C1N)C(CO)OC2(C),methanol,CO,55.1,28.4,29.6,29.96,45,2.5,1.188047809,3.739064,"['CO', 'O', 'CO', 'CC1OCCC(O)C1N', 'NC1COCCC1O', '.', 'CO']",['CO'],"['CO', 'O', 'CO', 'CC1OCCC(O)C1N', 'NC1COCCC1O', '.', 'CO']","[0, 0, 2, 3, 2, 4, 5, 1, 2]"
alginate,O=C(O)C1OC(C)C(O)C(O)C1O(C).O=C(O)C1OC(C)C(O)C(O)C1O(C),methanol,CO,36.0,0.19,29.6,10.0,77,3.0,1.81,653.0,"['CO', 'O=CO', 'CC1OCCC(O)C1O', '.', 'CO']",['CO'],"['CO', 'O=CO', 'CC1OCCC(O)C1O', '.', 'CO']","[0, 0, 0, 0, 2, 21, 22, 1, 2]"
pva,C(C)C(C)(O),ethylene_glycol,OCCO,74.0,22.0,32.9,10.0,25,8.0,0.0316,419.354839,"['CCC(C)O', '.', 'OCCO']",['OCCO'],"['CCC(C)O', '.', 'OCCO']","[0, 0, 0, 0, 0, 0, 20, 1, 29]"