Polymer,Polymer_SMILES,Solvent,Solvent_SMILES,Contact_angle,Thickness,Solvent_solubility_parameter,xw_(wt%),Temperature,Permeate_pressure,J_total_flux,a_separation_factor,Polymer_BRICS,Solvent_BRICS,PS_pair_BRICS,PS_tokenized_BRICS
alginate,O=C(O)C1OC(C)C(O)C(O)C1O(C).O=C(O)C1OC(C)C(O)C(O)C1O(C),ethanol,CCO,37.37,45.0,26.5,10.0,40,3.0,0.229,289.98,"['CO', 'O=CO', 'CC1OCCC(O)C1O', '.', 'CCO']",['CCO'],"['CO', 'O=CO', 'CC1OCCC(O)C1O', '.', 'CCO']","[0, 0, 0, 0, 2, 21, 22, 1, 15]"
alginate,O=C(O)C1OC(C)C(O)C(O)C1O(C).O=C(O)C1OC(C)C(O)C(O)C1O(C),ethanol,CCO,37.37,45.0,26.5,10.0,50,3.0,0.266,552.0,"['CO', 'O=CO', 'CC1OCCC(O)C1O', '.', 'CCO']",['CCO'],"['CO', 'O=CO', 'CC1OCCC(O)C1O', '.', 'CCO']","[0, 0, 0, 0, 2, 21, 22, 1, 15]"
alginate,O=C(O)C1OC(C)C(O)C(O)C1O(C).O=C(O)C1OC(C)C(O)C(O)C1O(C),ethanol,CCO,37.37,45.0,26.5,10.0,60,3.0,0.275,1000.0,"['CO', 'O=CO', 'CC1OCCC(O)C1O', '.', 'CCO']",['CCO'],"['CO', 'O=CO', 'CC1OCCC(O)C1O', '.', 'CCO']","[0, 0, 0, 0, 2, 21, 22, 1, 15]"
alginate,O=C(O)C1OC(C)C(O)C(O)C1O(C).O=C(O)C1OC(C)C(O)C(O)C1O(C),ethanol,CCO,37.37,45.0,26.5,10.0,70,3.0,0.297,861.95,"['CO', 'O=CO', 'CC1OCCC(O)C1O', '.', 'CCO']",['CCO'],"['CO', 'O=CO', 'CC1OCCC(O)C1O', '.', 'CCO']","[0, 0, 0, 0, 2, 21, 22, 1, 15]"
alginate,O=C(O)C1OC(C)C(O)C(O)C1O(C).O=C(O)C1OC(C)C(O)C(O)C1O(C),ethanol,CCO,37.37,45.0,26.5,20.0,50,3.0,0.305,652.04,"['CO', 'O=CO', 'CC1OCCC(O)C1O', '.', 'CCO']",['CCO'],"['CO', 'O=CO', 'CC1OCCC(O)C1O', '.', 'CCO']","[0, 0, 0, 0, 2, 21, 22, 1, 15]"
alginate,O=C(O)C1OC(C)C(O)C(O)C1O(C).O=C(O)C1OC(C)C(O)C(O)C1O(C),ethanol,CCO,37.37,45.0,26.5,30.0,50,3.0,0.518,509.18,"['CO', 'O=CO', 'CC1OCCC(O)C1O', '.', 'CCO']",['CCO'],"['CO', 'O=CO', 'CC1OCCC(O)C1O', '.', 'CCO']","[0, 0, 0, 0, 2, 21, 22, 1, 15]"
alginate,O=C(O)C1OC(C)C(O)C(O)C1O(C).O=C(O)C1OC(C)C(O)C(O)C1O(C),ipa,CC(C)O,37.37,45.0,23.5,10.0,50,3.0,0.722,1608.87,"['CO', 'O=CO', 'CC1OCCC(O)C1O', '.', 'CC(C)O']",['CC(C)O'],"['CO', 'O=CO', 'CC1OCCC(O)C1O', '.', 'CC(C)O']","[0, 0, 0, 0, 2, 21, 22, 1, 6]"
alginate,O=C(O)C1OC(C)C(O)C(O)C1O(C).O=C(O)C1OC(C)C(O)C(O)C1O(C),ipa,CC(C)O,37.37,45.0,23.5,15.0,50,3.0,1.456,2284.0,"['CO', 'O=CO', 'CC1OCCC(O)C1O', '.', 'CC(C)O']",['CC(C)O'],"['CO', 'O=CO', 'CC1OCCC(O)C1O', '.', 'CC(C)O']","[0, 0, 0, 0, 2, 21, 22, 1, 6]"
alginate,O=C(O)C1OC(C)C(O)C(O)C1O(C).O=C(O)C1OC(C)C(O)C(O)C1O(C),ipa,CC(C)O,37.37,45.0,23.5,20.0,50,3.0,2.228,1191.48,"['CO', 'O=CO', 'CC1OCCC(O)C1O', '.', 'CC(C)O']",['CC(C)O'],"['CO', 'O=CO', 'CC1OCCC(O)C1O', '.', 'CC(C)O']","[0, 0, 0, 0, 2, 21, 22, 1, 6]"
alginate,O=C(O)C1OC(C)C(O)C(O)C1O(C).O=C(O)C1OC(C)C(O)C(O)C1O(C),ipa,CC(C)O,37.37,45.0,23.5,30.0,50,3.0,2.588,904.74,"['CO', 'O=CO', 'CC1OCCC(O)C1O', '.', 'CC(C)O']",['CC(C)O'],"['CO', 'O=CO', 'CC1OCCC(O)C1O', '.', 'CC(C)O']","[0, 0, 0, 0, 2, 21, 22, 1, 6]"
pan,CCC(C#N)(C),ethanol,CCO,95.0,40.0,26.5,24.5,50,17.6,0.004,143.0,"['CCC(C)C#N', '.', 'CCO']",['CCO'],"['CCC(C)C#N', '.', 'CCO']","[0, 0, 0, 0, 0, 0, 33, 1, 15]"
pan,CCC(C#N)(C),ethanol,CCO,95.0,40.0,26.5,25.0,50,5.0,0.005,200.0,"['CCC(C)C#N', '.', 'CCO']",['CCO'],"['CCC(C)C#N', '.', 'CCO']","[0, 0, 0, 0, 0, 0, 33, 1, 15]"
pan,CCC(C#N)(C),ethanol,CCO,95.0,40.0,26.5,25.0,50,1.0,0.002,256.0,"['CCC(C)C#N', '.', 'CCO']",['CCO'],"['CCC(C)C#N', '.', 'CCO']","[0, 0, 0, 0, 0, 0, 33, 1, 15]"
pan,CCC(C#N)(C),ethanol,CCO,95.0,40.0,26.5,51.0,50,1.0,0.0022,103.0,"['CCC(C)C#N', '.', 'CCO']",['CCO'],"['CCC(C)C#N', '.', 'CCO']","[0, 0, 0, 0, 0, 0, 33, 1, 15]"
pan,CCC(C#N)(C),ethanol,CCO,95.0,40.0,26.5,25.5,50,1.0,0.0055,256.0,"['CCC(C)C#N', '.', 'CCO']",['CCO'],"['CCC(C)C#N', '.', 'CCO']","[0, 0, 0, 0, 0, 0, 33, 1, 15]"
pan,CCC(C#N)(C),ethanol,CCO,95.0,40.0,26.5,8.0,50,0.76,0.0007,281.0,"['CCC(C)C#N', '.', 'CCO']",['CCO'],"['CCC(C)C#N', '.', 'CCO']","[0, 0, 0, 0, 0, 0, 33, 1, 15]"
pva,C(C)C(C)(O),ethanol,CCO,80.1,22.0,26.5,30.0,40,3.0,0.3062,70.588235,"['CCC(C)O', '.', 'CCO']",['CCO'],"['CCC(C)O', '.', 'CCO']","[0, 0, 0, 0, 0, 0, 20, 1, 15]"
pva,C(C)C(C)(O),ethanol,CCO,74.0,22.0,26.5,30.0,25,3.0,0.3402,49.10828,"['CCC(C)O', '.', 'CCO']",['CCO'],"['CCC(C)O', '.', 'CCO']","[0, 0, 0, 0, 0, 0, 20, 1, 15]"
pva,C(C)C(C)(O),ethanol,CCO,76.8,22.0,26.5,30.0,40,3.0,0.3552,67.189542,"['CCC(C)O', '.', 'CCO']",['CCO'],"['CCC(C)O', '.', 'CCO']","[0, 0, 0, 0, 0, 0, 20, 1, 15]"
pva,C(C)C(C)(O),ethanol,CCO,74.0,22.0,26.5,30.0,40,3.0,0.3961,56.20915,"['CCC(C)O', '.', 'CCO']",['CCO'],"['CCC(C)O', '.', 'CCO']","[0, 0, 0, 0, 0, 0, 20, 1, 15]"
pva,C(C)C(C)(O),ethanol,CCO,76.2,22.0,26.5,30.0,40,3.0,0.3989,59.142336,"['CCC(C)O', '.', 'CCO']",['CCO'],"['CCC(C)O', '.', 'CCO']","[0, 0, 0, 0, 0, 0, 20, 1, 15]"
pva,C(C)C(C)(O),ethanol,CCO,70.7,22.0,26.5,30.0,40,3.0,0.4699,42.664234,"['CCC(C)O', '.', 'CCO']",['CCO'],"['CCC(C)O', '.', 'CCO']","[0, 0, 0, 0, 0, 0, 20, 1, 15]"
pva,C(C)C(C)(O),ethanol,CCO,74.0,22.0,26.5,30.0,50,3.0,0.4948,58.853503,"['CCC(C)O', '.', 'CCO']",['CCO'],"['CCC(C)O', '.', 'CCO']","[0, 0, 0, 0, 0, 0, 20, 1, 15]"
pva,C(C)C(C)(O),ethanol,CCO,80.1,22.0,26.5,50.0,40,3.0,0.6657,38.169935,"['CCC(C)O', '.', 'CCO']",['CCO'],"['CCC(C)O', '.', 'CCO']","[0, 0, 0, 0, 0, 0, 20, 1, 15]"
pva,C(C)C(C)(O),ethanol,CCO,74.0,22.0,26.5,50.0,25,3.0,0.8041,23.694268,"['CCC(C)O', '.', 'CCO']",['CCO'],"['CCC(C)O', '.', 'CCO']","[0, 0, 0, 0, 0, 0, 20, 1, 15]"
pva,C(C)C(C)(O),ethanol,CCO,76.8,22.0,26.5,50.0,40,3.0,0.8291,33.72549,"['CCC(C)O', '.', 'CCO']",['CCO'],"['CCC(C)O', '.', 'CCO']","[0, 0, 0, 0, 0, 0, 20, 1, 15]"
pva,C(C)C(C)(O),ethanol,CCO,76.2,22.0,26.5,50.0,40,3.0,0.929,31.678832,"['CCC(C)O', '.', 'CCO']",['CCO'],"['CCC(C)O', '.', 'CCO']","[0, 0, 0, 0, 0, 0, 20, 1, 15]"
pva,C(C)C(C)(O),ethanol,CCO,80.1,22.0,26.5,60.0,40,3.0,0.9353,26.928105,"['CCC(C)O', '.', 'CCO']",['CCO'],"['CCC(C)O', '.', 'CCO']","[0, 0, 0, 0, 0, 0, 20, 1, 15]"
pva,C(C)C(C)(O),ethanol,CCO,74.0,22.0,26.5,50.0,40,3.0,0.968,29.803922,"['CCC(C)O', '.', 'CCO']",['CCO'],"['CCC(C)O', '.', 'CCO']","[0, 0, 0, 0, 0, 0, 20, 1, 15]"
pva,C(C)C(C)(O),ethanol,CCO,70.7,22.0,26.5,50.0,40,3.0,1.0656,25.930657,"['CCC(C)O', '.', 'CCO']",['CCO'],"['CCC(C)O', '.', 'CCO']","[0, 0, 0, 0, 0, 0, 20, 1, 15]"
pva,C(C)C(C)(O),ethanol,CCO,74.0,22.0,26.5,50.0,50,3.0,1.0722,29.808917,"['CCC(C)O', '.', 'CCO']",['CCO'],"['CCC(C)O', '.', 'CCO']","[0, 0, 0, 0, 0, 0, 20, 1, 15]"
pva,C(C)C(C)(O),ethanol,CCO,74.0,22.0,26.5,60.0,25,3.0,1.1031,17.197452,"['CCC(C)O', '.', 'CCO']",['CCO'],"['CCC(C)O', '.', 'CCO']","[0, 0, 0, 0, 0, 0, 20, 1, 15]"
pva,C(C)C(C)(O),ethanol,CCO,76.8,22.0,26.5,60.0,40,3.0,1.2212,23.79085,"['CCC(C)O', '.', 'CCO']",['CCO'],"['CCC(C)O', '.', 'CCO']","[0, 0, 0, 0, 0, 0, 20, 1, 15]"
pva,C(C)C(C)(O),ethanol,CCO,76.2,22.0,26.5,60.0,40,3.0,1.2295,24.014599,"['CCC(C)O', '.', 'CCO']",['CCO'],"['CCC(C)O', '.', 'CCO']","[0, 0, 0, 0, 0, 0, 20, 1, 15]"
pva,C(C)C(C)(O),ethanol,CCO,70.7,22.0,26.5,60.0,40,3.0,1.3388,19.79927,"['CCC(C)O', '.', 'CCO']",['CCO'],"['CCC(C)O', '.', 'CCO']","[0, 0, 0, 0, 0, 0, 20, 1, 15]"
pva,C(C)C(C)(O),ethanol,CCO,74.0,22.0,26.5,60.0,40,3.0,1.352,19.869281,"['CCC(C)O', '.', 'CCO']",['CCO'],"['CCC(C)O', '.', 'CCO']","[0, 0, 0, 0, 0, 0, 20, 1, 15]"
pva,C(C)C(C)(O),ethanol,CCO,80.1,22.0,26.5,70.0,40,3.0,1.352,19.084967,"['CCC(C)O', '.', 'CCO']",['CCO'],"['CCC(C)O', '.', 'CCO']","[0, 0, 0, 0, 0, 0, 20, 1, 15]"
pva,C(C)C(C)(O),ethanol,CCO,74.0,22.0,26.5,70.0,25,3.0,1.433,12.420382,"['CCC(C)O', '.', 'CCO']",['CCO'],"['CCC(C)O', '.', 'CCO']","[0, 0, 0, 0, 0, 0, 20, 1, 15]"
pva,C(C)C(C)(O),ethanol,CCO,76.8,22.0,26.5,70.0,40,3.0,1.5644,16.993464,"['CCC(C)O', '.', 'CCO']",['CCO'],"['CCC(C)O', '.', 'CCO']","[0, 0, 0, 0, 0, 0, 20, 1, 15]"
pva,C(C)C(C)(O),ethanol,CCO,76.2,22.0,26.5,70.0,40,3.0,1.5683,17.372263,"['CCC(C)O', '.', 'CCO']",['CCO'],"['CCC(C)O', '.', 'CCO']","[0, 0, 0, 0, 0, 0, 20, 1, 15]"
pva,C(C)C(C)(O),ethanol,CCO,74.0,22.0,26.5,60.0,50,3.0,1.6804,22.929936,"['CCC(C)O', '.', 'CCO']",['CCO'],"['CCC(C)O', '.', 'CCO']","[0, 0, 0, 0, 0, 0, 20, 1, 15]"
pva,C(C)C(C)(O),ethanol,CCO,74.0,22.0,26.5,80.0,25,3.0,1.7526,9.745223,"['CCC(C)O', '.', 'CCO']",['CCO'],"['CCC(C)O', '.', 'CCO']","[0, 0, 0, 0, 0, 0, 20, 1, 15]"
pva,C(C)C(C)(O),ethanol,CCO,80.1,22.0,26.5,80.0,40,3.0,1.7686,12.026144,"['CCC(C)O', '.', 'CCO']",['CCO'],"['CCC(C)O', '.', 'CCO']","[0, 0, 0, 0, 0, 0, 20, 1, 15]"
pva,C(C)C(C)(O),ethanol,CCO,74.0,22.0,26.5,70.0,40,3.0,1.8422,12.026144,"['CCC(C)O', '.', 'CCO']",['CCO'],"['CCC(C)O', '.', 'CCO']","[0, 0, 0, 0, 0, 0, 20, 1, 15]"
pva,C(C)C(C)(O),ethanol,CCO,70.7,22.0,26.5,70.0,40,3.0,1.847,14.306569,"['CCC(C)O', '.', 'CCO']",['CCO'],"['CCC(C)O', '.', 'CCO']","[0, 0, 0, 0, 0, 0, 20, 1, 15]"
pva,C(C)C(C)(O),ethanol,CCO,76.2,22.0,26.5,80.0,40,3.0,1.918,11.113139,"['CCC(C)O', '.', 'CCO']",['CCO'],"['CCC(C)O', '.', 'CCO']","[0, 0, 0, 0, 0, 0, 20, 1, 15]"
pva,C(C)C(C)(O),ethanol,CCO,74.0,22.0,26.5,90.0,25,3.0,1.9691,4.968153,"['CCC(C)O', '.', 'CCO']",['CCO'],"['CCC(C)O', '.', 'CCO']","[0, 0, 0, 0, 0, 0, 20, 1, 15]"
pva,C(C)C(C)(O),ethanol,CCO,76.8,22.0,26.5,80.0,40,3.0,1.981,11.24183,"['CCC(C)O', '.', 'CCO']",['CCO'],"['CCC(C)O', '.', 'CCO']","[0, 0, 0, 0, 0, 0, 20, 1, 15]"
pva,C(C)C(C)(O),ethanol,CCO,80.1,22.0,26.5,90.0,40,3.0,2.1444,6.27451,"['CCC(C)O', '.', 'CCO']",['CCO'],"['CCC(C)O', '.', 'CCO']","[0, 0, 0, 0, 0, 0, 20, 1, 15]"
pva,C(C)C(C)(O),ethanol,CCO,76.2,22.0,26.5,90.0,40,3.0,2.1585,6.770073,"['CCC(C)O', '.', 'CCO']",['CCO'],"['CCC(C)O', '.', 'CCO']","[0, 0, 0, 0, 0, 0, 20, 1, 15]"
pva,C(C)C(C)(O),ethanol,CCO,76.8,22.0,26.5,90.0,40,3.0,2.2507,6.27451,"['CCC(C)O', '.', 'CCO']",['CCO'],"['CCC(C)O', '.', 'CCO']","[0, 0, 0, 0, 0, 0, 20, 1, 15]"
pva,C(C)C(C)(O),ethanol,CCO,74.0,22.0,26.5,80.0,40,3.0,2.2833,9.150327,"['CCC(C)O', '.', 'CCO']",['CCO'],"['CCC(C)O', '.', 'CCO']","[0, 0, 0, 0, 0, 0, 20, 1, 15]"
pva,C(C)C(C)(O),ethanol,CCO,70.7,22.0,26.5,80.0,40,3.0,2.4208,9.708029,"['CCC(C)O', '.', 'CCO']",['CCO'],"['CCC(C)O', '.', 'CCO']","[0, 0, 0, 0, 0, 0, 20, 1, 15]"
pva,C(C)C(C)(O),ethanol,CCO,74.0,22.0,26.5,70.0,50,3.0,2.4433,13.375796,"['CCC(C)O', '.', 'CCO']",['CCO'],"['CCC(C)O', '.', 'CCO']","[0, 0, 0, 0, 0, 0, 20, 1, 15]"
pva,C(C)C(C)(O),ethanol,CCO,74.0,22.0,26.5,90.0,40,3.0,2.4549,5.228758,"['CCC(C)O', '.', 'CCO']",['CCO'],"['CCC(C)O', '.', 'CCO']","[0, 0, 0, 0, 0, 0, 20, 1, 15]"
pva,C(C)C(C)(O),ethanol,CCO,70.7,22.0,26.5,90.0,40,3.0,2.7158,5.109489,"['CCC(C)O', '.', 'CCO']",['CCO'],"['CCC(C)O', '.', 'CCO']","[0, 0, 0, 0, 0, 0, 20, 1, 15]"
pva,C(C)C(C)(O),ethanol,CCO,74.0,22.0,26.5,80.0,50,3.0,2.9897,10.509554,"['CCC(C)O', '.', 'CCO']",['CCO'],"['CCC(C)O', '.', 'CCO']","[0, 0, 0, 0, 0, 0, 20, 1, 15]"
pva,C(C)C(C)(O),ethanol,CCO,74.0,22.0,26.5,90.0,50,3.0,3.2577,5.541401,"['CCC(C)O', '.', 'CCO']",['CCO'],"['CCC(C)O', '.', 'CCO']","[0, 0, 0, 0, 0, 0, 20, 1, 15]"
chitosan,NC2C(O)C(OC1OC(CO)C(O(C))C(O)C1N)C(CO)OC2(C),ethanol,CCO,55.1,18.0,26.5,15.0,50,10.0,0.28,203.69,"['CO', 'O', 'CO', 'CC1OCCC(O)C1N', 'NC1COCCC1O', '.', 'CCO']",['CCO'],"['CO', 'O', 'CO', 'CC1OCCC(O)C1N', 'NC1COCCC1O', '.', 'CCO']","[0, 0, 2, 3, 2, 4, 5, 1, 15]"
pdms,[Si](C)(C)(C)O(C),ethanol,CCO,108.08219,200.0,26.5,90.0,25,2.0,0.041,0.108578,"['CO[Si](C)(C)C', '.', 'CCO']",['CCO'],"['CO[Si](C)(C)C', '.', 'CCO']","[0, 0, 0, 0, 0, 0, 7, 1, 15]"
ptmsp,C/C(C)=C(C)/[Si](C)(C)C,ethanol,CCO,100.0,84.43,26.5,95.0,50,0.04,0.3041,0.041137,"['CCC', 'CC[Si](C)(C)C', '.', 'CCO']",['CCO'],"['CCC', 'CC[Si](C)(C)C', '.', 'CCO']","[0, 0, 0, 0, 0, 24, 25, 1, 15]"
ptmsp,C/C(C)=C(C)/[Si](C)(C)C,ethanol,CCO,100.0,79.72,26.5,95.0,50,0.04,0.3594,0.042361,"['CCC', 'CC[Si](C)(C)C', '.', 'CCO']",['CCO'],"['CCC', 'CC[Si](C)(C)C', '.', 'CCO']","[0, 0, 0, 0, 0, 24, 25, 1, 15]"
ptmsp,C/C(C)=C(C)/[Si](C)(C)C,ethanol,CCO,100.0,44.34,26.5,95.0,50,0.04,0.6359,0.041256,"['CCC', 'CC[Si](C)(C)C', '.', 'CCO']",['CCO'],"['CCC', 'CC[Si](C)(C)C', '.', 'CCO']","[0, 0, 0, 0, 0, 24, 25, 1, 15]"
ptmsp,C/C(C)=C(C)/[Si](C)(C)C,ethanol,CCO,100.0,32.55,26.5,95.0,50,0.04,0.8295,0.041497,"['CCC', 'CC[Si](C)(C)C', '.', 'CCO']",['CCO'],"['CCC', 'CC[Si](C)(C)C', '.', 'CCO']","[0, 0, 0, 0, 0, 24, 25, 1, 15]"
ptmsp,C/C(C)=C(C)/[Si](C)(C)C,ethanol,CCO,100.0,15.8,26.5,95.0,50,0.04,1.7213,0.0449,"['CCC', 'CC[Si](C)(C)C', '.', 'CCO']",['CCO'],"['CCC', 'CC[Si](C)(C)C', '.', 'CCO']","[0, 0, 0, 0, 0, 24, 25, 1, 15]"
ptmsp,C/C(C)=C(C)/[Si](C)(C)C,ethanol,CCO,100.0,14.96,26.5,95.0,50,0.04,1.5246,0.044806,"['CCC', 'CC[Si](C)(C)C', '.', 'CCO']",['CCO'],"['CCC', 'CC[Si](C)(C)C', '.', 'CCO']","[0, 0, 0, 0, 0, 24, 25, 1, 15]"
ptmsp,C/C(C)=C(C)/[Si](C)(C)C,ethanol,CCO,100.0,8.15,26.5,95.0,50,0.04,2.6557,0.044975,"['CCC', 'CC[Si](C)(C)C', '.', 'CCO']",['CCO'],"['CCC', 'CC[Si](C)(C)C', '.', 'CCO']","[0, 0, 0, 0, 0, 24, 25, 1, 15]"
ptmsp,C/C(C)=C(C)/[Si](C)(C)C,ethanol,CCO,100.0,7.82,26.5,95.0,50,0.04,2.459,0.047861,"['CCC', 'CC[Si](C)(C)C', '.', 'CCO']",['CCO'],"['CCC', 'CC[Si](C)(C)C', '.', 'CCO']","[0, 0, 0, 0, 0, 24, 25, 1, 15]"
ptmsp,C/C(C)=C(C)/[Si](C)(C)C,ethanol,CCO,100.0,4.37,26.5,95.0,50,0.04,3.9344,0.048641,"['CCC', 'CC[Si](C)(C)C', '.', 'CCO']",['CCO'],"['CCC', 'CC[Si](C)(C)C', '.', 'CCO']","[0, 0, 0, 0, 0, 24, 25, 1, 15]"
ptmsp,C/C(C)=C(C)/[Si](C)(C)C,ethanol,CCO,100.0,4.37,26.5,95.0,50,0.04,4.0328,0.053673,"['CCC', 'CC[Si](C)(C)C', '.', 'CCO']",['CCO'],"['CCC', 'CC[Si](C)(C)C', '.', 'CCO']","[0, 0, 0, 0, 0, 24, 25, 1, 15]"
pdms,[Si](C)(C)(C)O(C),ethanol,CCO,108.08219,4.0,26.5,95.0,50,0.04,1.3,0.140845,"['CO[Si](C)(C)C', '.', 'CCO']",['CCO'],"['CO[Si](C)(C)C', '.', 'CCO']","[0, 0, 0, 0, 0, 0, 7, 1, 15]"
pdms,[Si](C)(C)(C)O(C),ethanol,CCO,108.08219,4.0,26.5,95.0,50,0.04,2.6,0.149254,"['CO[Si](C)(C)C', '.', 'CCO']",['CCO'],"['CO[Si](C)(C)C', '.', 'CCO']","[0, 0, 0, 0, 0, 0, 7, 1, 15]"
ptmsp,C/C(C)=C(C)/[Si](C)(C)C,ethanol,CCO,100.0,2.35,26.5,95.0,50,0.04,5.2623,0.052263,"['CCC', 'CC[Si](C)(C)C', '.', 'CCO']",['CCO'],"['CCC', 'CC[Si](C)(C)C', '.', 'CCO']","[0, 0, 0, 0, 0, 24, 25, 1, 15]"
ptmsp,C/C(C)=C(C)/[Si](C)(C)C,ethanol,CCO,100.0,2.02,26.5,95.0,50,0.04,4.6721,0.066174,"['CCC', 'CC[Si](C)(C)C', '.', 'CCO']",['CCO'],"['CCC', 'CC[Si](C)(C)C', '.', 'CCO']","[0, 0, 0, 0, 0, 24, 25, 1, 15]"
ptmsp,C/C(C)=C(C)/[Si](C)(C)C,ethanol,CCO,100.0,1.93,26.5,95.0,50,0.04,4.9672,0.071743,"['CCC', 'CC[Si](C)(C)C', '.', 'CCO']",['CCO'],"['CCC', 'CC[Si](C)(C)C', '.', 'CCO']","[0, 0, 0, 0, 0, 24, 25, 1, 15]"
ptmsp,C/C(C)=C(C)/[Si](C)(C)C,ethanol,CCO,100.0,1.43,26.5,95.0,50,0.04,5.9508,0.064043,"['CCC', 'CC[Si](C)(C)C', '.', 'CCO']",['CCO'],"['CCC', 'CC[Si](C)(C)C', '.', 'CCO']","[0, 0, 0, 0, 0, 24, 25, 1, 15]"
pdms,[Si](C)(C)(C)O(C),ethanol,CCO,108.08219,100.0,26.5,95.0,50,4.0,0.0967,0.123977,"['CO[Si](C)(C)C', '.', 'CCO']",['CCO'],"['CO[Si](C)(C)C', '.', 'CCO']","[0, 0, 0, 0, 0, 0, 7, 1, 15]"
pdms,[Si](C)(C)(C)O(C),ethanol,CCO,108.08219,120.0,26.5,94.0,40,1.0,0.027,0.114943,"['CO[Si](C)(C)C', '.', 'CCO']",['CCO'],"['CO[Si](C)(C)C', '.', 'CCO']","[0, 0, 0, 0, 0, 0, 7, 1, 15]"
pva,C(C)C(C)(O),ethanol,CCO,69.6,40.0,26.5,10.0,40,3.5,0.0791,519.756839,"['CCC(C)O', '.', 'CCO']",['CCO'],"['CCC(C)O', '.', 'CCO']","[0, 0, 0, 0, 0, 0, 20, 1, 15]"
pva,C(C)C(C)(O),ethanol,CCO,69.6,40.0,26.5,10.0,50,3.5,0.086,395.744681,"['CCC(C)O', '.', 'CCO']",['CCO'],"['CCC(C)O', '.', 'CCO']","[0, 0, 0, 0, 0, 0, 20, 1, 15]"
pva,C(C)C(C)(O),ethanol,CCO,69.6,40.0,26.5,10.0,60,3.5,0.1146,211.550152,"['CCC(C)O', '.', 'CCO']",['CCO'],"['CCC(C)O', '.', 'CCO']","[0, 0, 0, 0, 0, 0, 20, 1, 15]"
pva,C(C)C(C)(O),ethanol,CCO,69.6,40.0,26.5,10.0,70,3.5,0.1308,164.133739,"['CCC(C)O', '.', 'CCO']",['CCO'],"['CCC(C)O', '.', 'CCO']","[0, 0, 0, 0, 0, 0, 20, 1, 15]"
pdms,[Si](C)(C)(C)O(C),ethanol,CCO,103.72,8.9,26.5,95.0,40,1.0,0.3812,0.175258,"['CO[Si](C)(C)C', '.', 'CCO']",['CCO'],"['CO[Si](C)(C)C', '.', 'CCO']","[0, 0, 0, 0, 0, 0, 7, 1, 15]"
chitosan,NC2C(O)C(OC1OC(CO)C(O(C))C(O)C1N)C(CO)OC2(C),ethanol,CCO,41.21,25.0,26.5,10.0,80,1.0,0.0548,158.2938,"['CO', 'O', 'CO', 'CC1OCCC(O)C1N', 'NC1COCCC1O', '.', 'CCO']",['CCO'],"['CO', 'O', 'CO', 'CC1OCCC(O)C1N', 'NC1COCCC1O', '.', 'CCO']","[0, 0, 2, 3, 2, 4, 5, 1, 15]"
alginate,O=C(O)C1OC(C)C(O)C(O)C1O(C).O=C(O)C1OC(C)C(O)C(O)C1O(C),ethanol,CCO,38.74,28.0,26.5,3.0,25,3.0,0.1504,64.779874,"['CO', 'O=CO', 'CC1OCCC(O)C1O', '.', 'CCO']",['CCO'],"['CO', 'O=CO', 'CC1OCCC(O)C1O', '.', 'CCO']","[0, 0, 0, 0, 2, 21, 22, 1, 15]"
alginate,O=C(O)C1OC(C)C(O)C(O)C1O(C).O=C(O)C1OC(C)C(O)C(O)C1O(C),ethanol,CCO,31.43,28.0,26.5,3.0,25,3.0,0.1698,27.044025,"['CO', 'O=CO', 'CC1OCCC(O)C1O', '.', 'CCO']",['CCO'],"['CO', 'O=CO', 'CC1OCCC(O)C1O', '.', 'CCO']","[0, 0, 0, 0, 2, 21, 22, 1, 15]"
alginate,O=C(O)C1OC(C)C(O)C(O)C1O(C).O=C(O)C1OC(C)C(O)C(O)C1O(C),ethanol,CCO,55.57,28.0,26.5,3.0,25,3.0,0.2589,23.27044,"['CO', 'O=CO', 'CC1OCCC(O)C1O', '.', 'CCO']",['CCO'],"['CO', 'O=CO', 'CC1OCCC(O)C1O', '.', 'CCO']","[0, 0, 0, 0, 2, 21, 22, 1, 15]"
alginate,O=C(O)C1OC(C)C(O)C(O)C1O(C).O=C(O)C1OC(C)C(O)C(O)C1O(C),ethanol,CCO,34.04,28.0,26.5,3.0,25,3.0,0.2705,55.974843,"['CO', 'O=CO', 'CC1OCCC(O)C1O', '.', 'CCO']",['CCO'],"['CO', 'O=CO', 'CC1OCCC(O)C1O', '.', 'CCO']","[0, 0, 0, 0, 2, 21, 22, 1, 15]"
pva,C(C)C(C)(O),ethanol,CCO,59.0,45.0,26.5,30.0,22,0.3,0.0322,214.507772,"['CCC(C)O', '.', 'CCO']",['CCO'],"['CCC(C)O', '.', 'CCO']","[0, 0, 0, 0, 0, 0, 20, 1, 15]"
pva,C(C)C(C)(O),ethanol,CCO,59.0,45.0,26.5,50.0,22,0.3,0.1074,55.958549,"['CCC(C)O', '.', 'CCO']",['CCO'],"['CCC(C)O', '.', 'CCO']","[0, 0, 0, 0, 0, 0, 20, 1, 15]"
pva,C(C)C(C)(O),ethanol,CCO,70.0,45.0,26.5,30.0,22,0.3,0.1202,9.326425,"['CCC(C)O', '.', 'CCO']",['CCO'],"['CCC(C)O', '.', 'CCO']","[0, 0, 0, 0, 0, 0, 20, 1, 15]"
pva,C(C)C(C)(O),ethanol,CCO,59.0,45.0,26.5,70.0,22,0.3,0.1868,9.326425,"['CCC(C)O', '.', 'CCO']",['CCO'],"['CCC(C)O', '.', 'CCO']","[0, 0, 0, 0, 0, 0, 20, 1, 15]"
chitosan,NC2C(O)C(OC1OC(CO)C(O(C))C(O)C1N)C(CO)OC2(C),ethanol,CCO,55.1,30.0,26.5,10.0,25,1.0,0.319,309.0,"['CO', 'O', 'CO', 'CC1OCCC(O)C1N', 'NC1COCCC1O', '.', 'CCO']",['CCO'],"['CO', 'O', 'CO', 'CC1OCCC(O)C1N', 'NC1COCCC1O', '.', 'CCO']","[0, 0, 2, 3, 2, 4, 5, 1, 15]"
pdms,[Si](C)(C)(C)O(C),ethanol,CCO,108.08219,9.5,26.5,94.0,30,3.0,0.6523,0.121368,"['CO[Si](C)(C)C', '.', 'CCO']",['CCO'],"['CO[Si](C)(C)C', '.', 'CCO']","[0, 0, 0, 0, 0, 0, 7, 1, 15]"
pdms,[Si](C)(C)(C)O(C),ethanol,CCO,108.08219,9.5,26.5,94.0,40,3.0,0.9112,0.123478,"['CO[Si](C)(C)C', '.', 'CCO']",['CCO'],"['CO[Si](C)(C)C', '.', 'CCO']","[0, 0, 0, 0, 0, 0, 7, 1, 15]"
pdms,[Si](C)(C)(C)O(C),ethanol,CCO,108.08219,9.5,26.5,94.0,50,3.0,1.3071,0.118006,"['CO[Si](C)(C)C', '.', 'CCO']",['CCO'],"['CO[Si](C)(C)C', '.', 'CCO']","[0, 0, 0, 0, 0, 0, 7, 1, 15]"
pdms,[Si](C)(C)(C)O(C),ethanol,CCO,108.08219,9.5,26.5,94.0,60,3.0,1.8706,0.114516,"['CO[Si](C)(C)C', '.', 'CCO']",['CCO'],"['CO[Si](C)(C)C', '.', 'CCO']","[0, 0, 0, 0, 0, 0, 7, 1, 15]"
pdms,[Si](C)(C)(C)O(C),ethanol,CCO,108.08219,9.5,26.5,94.0,70,3.0,2.8299,0.121368,"['CO[Si](C)(C)C', '.', 'CCO']",['CCO'],"['CO[Si](C)(C)C', '.', 'CCO']","[0, 0, 0, 0, 0, 0, 7, 1, 15]"
pdms,[Si](C)(C)(C)O(C),ethanol,CCO,108.08219,87.5,26.5,95.0,30,0.667,0.0319,0.1,"['CO[Si](C)(C)C', '.', 'CCO']",['CCO'],"['CO[Si](C)(C)C', '.', 'CCO']","[0, 0, 0, 0, 0, 0, 7, 1, 15]"
pdms,[Si](C)(C)(C)O(C),ethanol,CCO,108.08219,6.0,26.5,95.0,30,0.667,0.625333333,0.111111,"['CO[Si](C)(C)C', '.', 'CCO']",['CCO'],"['CO[Si](C)(C)C', '.', 'CCO']","[0, 0, 0, 0, 0, 0, 7, 1, 15]"