Polymer,Polymer_SMILES,Solvent,Solvent_SMILES,Contact_angle,Thickness,Solvent_solubility_parameter,xw_(wt%),Temperature,Permeate_pressure,J_total_flux,a_separation_factor,Polymer_BRICS,Solvent_BRICS,PS_pair_BRICS,PS_tokenized_BRICS
matrimid,CC7(C)CC(C)(c5ccc(n4c(=O)c3ccc(C(=O)c2ccc1c(=O)n(C)c(=O)c1c2)cc3c4=O)cc5)c6cc(C)ccc67,ipa,CC(C)O,91.2,50.0,23.5,15.0,60,1.0,0.0247,1368.0,"['CN1C(=O)c2ccccc2C1=O', 'C=O', 'O=C1NC(=O)c2ccccc21', 'Cc1ccc2c(c1)C(C)(c1ccccc1)CC2(C)C', '.', 'CC(C)O']",['CC(C)O'],"['CN1C(=O)c2ccccc2C1=O', 'C=O', 'O=C1NC(=O)c2ccccc21', 'Cc1ccc2c(c1)C(C)(c1ccccc1)CC2(C)C', '.', 'CC(C)O']","[0, 0, 0, 16, 17, 19, 27, 1, 6]"
matrimid,CC7(C)CC(C)(c5ccc(n4c(=O)c3ccc(C(=O)c2ccc1c(=O)n(C)c(=O)c1c2)cc3c4=O)cc5)c6cc(C)ccc67,n-butanol,CCCCO,91.2,50.0,23.1,15.0,60,1.0,0.0248,5661.0,"['CN1C(=O)c2ccccc2C1=O', 'C=O', 'O=C1NC(=O)c2ccccc21', 'Cc1ccc2c(c1)C(C)(c1ccccc1)CC2(C)C', '.', 'CCCCO']",['CCCCO'],"['CN1C(=O)c2ccccc2C1=O', 'C=O', 'O=C1NC(=O)c2ccccc21', 'Cc1ccc2c(c1)C(C)(c1ccccc1)CC2(C)C', '.', 'CCCCO']","[0, 0, 0, 16, 17, 19, 27, 1, 8]"
matrimid,CC7(C)CC(C)(c5ccc(n4c(=O)c3ccc(C(=O)c2ccc1c(=O)n(C)c(=O)c1c2)cc3c4=O)cc5)c6cc(C)ccc67,ethanol,CCO,91.2,50.0,26.5,15.0,60,1.0,0.0256,505.0,"['CN1C(=O)c2ccccc2C1=O', 'C=O', 'O=C1NC(=O)c2ccccc21', 'Cc1ccc2c(c1)C(C)(c1ccccc1)CC2(C)C', '.', 'CCO']",['CCO'],"['CN1C(=O)c2ccccc2C1=O', 'C=O', 'O=C1NC(=O)c2ccccc21', 'Cc1ccc2c(c1)C(C)(c1ccccc1)CC2(C)C', '.', 'CCO']","[0, 0, 0, 16, 17, 19, 27, 1, 15]"
peba,C(C)=O.COC(C)=O.COC.CNCCCCCCCCCCCC(C)=O.CCCCCOC,n-butanol,CCCCO,89.0,30.0,23.1,99.99241466,60,1.0,0.2708,0.026227,"['CO', 'CC=O', '.', 'CCCCO']",['CCCCO'],"['CO', 'CC=O', '.', 'CCCCO']","[0, 0, 0, 0, 0, 2, 9, 1, 8]"
peba,C(C)=O.COC(C)=O.COC.CNCCCCCCCCCCCC(C)=O.CCCCCOC,n-butanol,CCCCO,89.0,30.0,23.1,99.98103666,60,1.0,0.3125,0.02849,"['CO', 'CC=O', '.', 'CCCCO']",['CCCCO'],"['CO', 'CC=O', '.', 'CCCCO']","[0, 0, 0, 0, 0, 2, 9, 1, 8]"
peba,C(C)=O.COC(C)=O.COC.CNCCCCCCCCCCCC(C)=O.CCCCCOC,n-butanol,CCCCO,89.0,30.0,23.1,99.96839444,60,1.0,0.327,0.029308,"['CO', 'CC=O', '.', 'CCCCO']",['CCCCO'],"['CO', 'CC=O', '.', 'CCCCO']","[0, 0, 0, 0, 0, 2, 9, 1, 8]"
peba,C(C)=O.COC(C)=O.COC.CNCCCCCCCCCCCC(C)=O.CCCCCOC,n-butanol,CCCCO,89.0,30.0,23.1,99.9494311,60,1.0,0.3599,0.029539,"['CO', 'CC=O', '.', 'CCCCO']",['CCCCO'],"['CO', 'CC=O', '.', 'CCCCO']","[0, 0, 0, 0, 0, 2, 9, 1, 8]"
peba,C(C)=O.COC(C)=O.COC.CNCCCCCCCCCCCC(C)=O.CCCCCOC,n-butanol,CCCCO,89.0,30.0,23.1,99.80151707,60,1.0,0.4159,0.029539,"['CO', 'CC=O', '.', 'CCCCO']",['CCCCO'],"['CO', 'CC=O', '.', 'CCCCO']","[0, 0, 0, 0, 0, 2, 9, 1, 8]"
peba,C(C)=O.COC(C)=O.COC.CNCCCCCCCCCCCC(C)=O.CCCCCOC,n-butanol,CCCCO,89.0,30.0,23.1,99.92667509,60,1.0,0.3932,0.029933,"['CO', 'CC=O', '.', 'CCCCO']",['CCCCO'],"['CO', 'CC=O', '.', 'CCCCO']","[0, 0, 0, 0, 0, 2, 9, 1, 8]"
peba,C(C)=O.COC(C)=O.COC.CNCCCCCCCCCCCC(C)=O.CCCCCOC,n-butanol,CCCCO,89.0,30.0,23.1,99.89759798,60,1.0,0.4155,0.030669,"['CO', 'CC=O', '.', 'CCCCO']",['CCCCO'],"['CO', 'CC=O', '.', 'CCCCO']","[0, 0, 0, 0, 0, 2, 9, 1, 8]"
peba,C(C)=O.COC(C)=O.COC.CNCCCCCCCCCCCC(C)=O.CCCCCOC,n-butanol,CCCCO,89.0,30.0,23.1,99.98988622,50,1.0,0.1459,0.031443,"['CO', 'CC=O', '.', 'CCCCO']",['CCCCO'],"['CO', 'CC=O', '.', 'CCCCO']","[0, 0, 0, 0, 0, 2, 9, 1, 8]"
peba,C(C)=O.COC(C)=O.COC.CNCCCCCCCCCCCC(C)=O.CCCCCOC,n-butanol,CCCCO,89.0,30.0,23.1,99.8369153,60,1.0,0.4473,0.03162,"['CO', 'CC=O', '.', 'CCCCO']",['CCCCO'],"['CO', 'CC=O', '.', 'CCCCO']","[0, 0, 0, 0, 0, 2, 9, 1, 8]"
peba,C(C)=O.COC(C)=O.COC.CNCCCCCCCCCCCC(C)=O.CCCCCOC,n-butanol,CCCCO,89.0,30.0,23.1,99.69279393,60,1.0,0.4877,0.03198,"['CO', 'CC=O', '.', 'CCCCO']",['CCCCO'],"['CO', 'CC=O', '.', 'CCCCO']","[0, 0, 0, 0, 0, 2, 9, 1, 8]"
peba,C(C)=O.COC(C)=O.COC.CNCCCCCCCCCCCC(C)=O.CCCCCOC,n-butanol,CCCCO,89.0,30.0,23.1,99.59924147,60,1.0,0.5038,0.032256,"['CO', 'CC=O', '.', 'CCCCO']",['CCCCO'],"['CO', 'CC=O', '.', 'CCCCO']","[0, 0, 0, 0, 0, 2, 9, 1, 8]"
peba,C(C)=O.COC(C)=O.COC.CNCCCCCCCCCCCC(C)=O.CCCCCOC,n-butanol,CCCCO,89.0,30.0,23.1,99.96839444,50,1.0,0.1833,0.03381,"['CO', 'CC=O', '.', 'CCCCO']",['CCCCO'],"['CO', 'CC=O', '.', 'CCCCO']","[0, 0, 0, 0, 0, 2, 9, 1, 8]"
peba,C(C)=O.COC(C)=O.COC.CNCCCCCCCCCCCC(C)=O.CCCCCOC,n-butanol,CCCCO,89.0,30.0,23.1,99.988622,50,1.0,0.1839,0.035299,"['CO', 'CC=O', '.', 'CCCCO']",['CCCCO'],"['CO', 'CC=O', '.', 'CCCCO']","[0, 0, 0, 0, 0, 2, 9, 1, 8]"
peba,C(C)=O.COC(C)=O.COC.CNCCCCCCCCCCCC(C)=O.CCCCCOC,n-butanol,CCCCO,89.0,30.0,23.1,99.94437421,50,1.0,0.2388,0.035748,"['CO', 'CC=O', '.', 'CCCCO']",['CCCCO'],"['CO', 'CC=O', '.', 'CCCCO']","[0, 0, 0, 0, 0, 2, 9, 1, 8]"
peba,C(C)=O.COC(C)=O.COC.CNCCCCCCCCCCCC(C)=O.CCCCCOC,n-butanol,CCCCO,89.0,30.0,23.1,99.89380531,50,1.0,0.2986,0.037417,"['CO', 'CC=O', '.', 'CCCCO']",['CCCCO'],"['CO', 'CC=O', '.', 'CCCCO']","[0, 0, 0, 0, 0, 2, 9, 1, 8]"
peba,C(C)=O.COC(C)=O.COC.CNCCCCCCCCCCCC(C)=O.CCCCCOC,n-butanol,CCCCO,89.0,30.0,23.1,99.77496839,50,1.0,0.3586,0.039248,"['CO', 'CC=O', '.', 'CCCCO']",['CCCCO'],"['CO', 'CC=O', '.', 'CCCCO']","[0, 0, 0, 0, 0, 2, 9, 1, 8]"
peba,C(C)=O.COC(C)=O.COC.CNCCCCCCCCCCCC(C)=O.CCCCCOC,n-butanol,CCCCO,89.0,30.0,23.1,99.92667509,50,1.0,0.2495,0.039805,"['CO', 'CC=O', '.', 'CCCCO']",['CCCCO'],"['CO', 'CC=O', '.', 'CCCCO']","[0, 0, 0, 0, 0, 2, 9, 1, 8]"
peba,C(C)=O.COC(C)=O.COC.CNCCCCCCCCCCCC(C)=O.CCCCCOC,n-butanol,CCCCO,89.0,30.0,23.1,99.84197219,50,1.0,0.3445,0.040089,"['CO', 'CC=O', '.', 'CCCCO']",['CCCCO'],"['CO', 'CC=O', '.', 'CCCCO']","[0, 0, 0, 0, 0, 2, 9, 1, 8]"
peba,C(C)=O.COC(C)=O.COC.CNCCCCCCCCCCCC(C)=O.CCCCCOC,n-butanol,CCCCO,89.0,30.0,23.1,99.6182048,50,1.0,0.3887,0.040378,"['CO', 'CC=O', '.', 'CCCCO']",['CCCCO'],"['CO', 'CC=O', '.', 'CCCCO']","[0, 0, 0, 0, 0, 2, 9, 1, 8]"
peba,C(C)=O.COC(C)=O.COC.CNCCCCCCCCCCCC(C)=O.CCCCCOC,n-butanol,CCCCO,89.0,30.0,23.1,99.67635904,50,1.0,0.3647,0.04067,"['CO', 'CC=O', '.', 'CCCCO']",['CCCCO'],"['CO', 'CC=O', '.', 'CCCCO']","[0, 0, 0, 0, 0, 2, 9, 1, 8]"
peba,C(C)=O.COC(C)=O.COC.CNCCCCCCCCCCCC(C)=O.CCCCCOC,n-butanol,CCCCO,89.0,30.0,23.1,99.98230088,40,1.0,0.0534,0.042519,"['CO', 'CC=O', '.', 'CCCCO']",['CCCCO'],"['CO', 'CC=O', '.', 'CCCCO']","[0, 0, 0, 0, 0, 2, 9, 1, 8]"
peba,C(C)=O.COC(C)=O.COC.CNCCCCCCCCCCCC(C)=O.CCCCCOC,n-butanol,CCCCO,89.0,30.0,23.1,99.96965866,40,1.0,0.1062,0.045445,"['CO', 'CC=O', '.', 'CCCCO']",['CCCCO'],"['CO', 'CC=O', '.', 'CCCCO']","[0, 0, 0, 0, 0, 2, 9, 1, 8]"
peba,C(C)=O.COC(C)=O.COC.CNCCCCCCCCCCCC(C)=O.CCCCCOC,n-butanol,CCCCO,89.0,30.0,23.1,99.95828066,40,1.0,0.1269,0.046193,"['CO', 'CC=O', '.', 'CCCCO']",['CCCCO'],"['CO', 'CC=O', '.', 'CCCCO']","[0, 0, 0, 0, 0, 2, 9, 1, 8]"
peba,C(C)=O.COC(C)=O.COC.CNCCCCCCCCCCCC(C)=O.CCCCCOC,n-butanol,CCCCO,89.0,30.0,23.1,99.70543616,40,1.0,0.2074,0.046193,"['CO', 'CC=O', '.', 'CCCCO']",['CCCCO'],"['CO', 'CC=O', '.', 'CCCCO']","[0, 0, 0, 0, 0, 2, 9, 1, 8]"
peba,C(C)=O.COC(C)=O.COC.CNCCCCCCCCCCCC(C)=O.CCCCCOC,n-butanol,CCCCO,89.0,30.0,23.1,99.93426043,40,1.0,0.2044,0.049017,"['CO', 'CC=O', '.', 'CCCCO']",['CCCCO'],"['CO', 'CC=O', '.', 'CCCCO']","[0, 0, 0, 0, 0, 2, 9, 1, 8]"
peba,C(C)=O.COC(C)=O.COC.CNCCCCCCCCCCCC(C)=O.CCCCCOC,n-butanol,CCCCO,89.0,30.0,23.1,99.94690265,40,1.0,0.1851,0.049232,"['CO', 'CC=O', '.', 'CCCCO']",['CCCCO'],"['CO', 'CC=O', '.', 'CCCCO']","[0, 0, 0, 0, 0, 2, 9, 1, 8]"
peba,C(C)=O.COC(C)=O.COC.CNCCCCCCCCCCCC(C)=O.CCCCCOC,n-butanol,CCCCO,89.0,30.0,23.1,99.82300885,40,1.0,0.2181,0.049232,"['CO', 'CC=O', '.', 'CCCCO']",['CCCCO'],"['CO', 'CC=O', '.', 'CCCCO']","[0, 0, 0, 0, 0, 2, 9, 1, 8]"
peba,C(C)=O.COC(C)=O.COC.CNCCCCCCCCCCCC(C)=O.CCCCCOC,n-butanol,CCCCO,89.0,30.0,23.1,99.89254109,40,1.0,0.1923,0.050112,"['CO', 'CC=O', '.', 'CCCCO']",['CCCCO'],"['CO', 'CC=O', '.', 'CCCCO']","[0, 0, 0, 0, 0, 2, 9, 1, 8]"
peba,C(C)=O.COC(C)=O.COC.CNCCCCCCCCCCCC(C)=O.CCCCCOC,n-butanol,CCCCO,89.0,30.0,23.1,99.79519595,40,1.0,0.2573,0.052948,"['CO', 'CC=O', '.', 'CCCCO']",['CCCCO'],"['CO', 'CC=O', '.', 'CCCCO']","[0, 0, 0, 0, 0, 2, 9, 1, 8]"
peba,C(C)=O.COC(C)=O.COC.CNCCCCCCCCCCCC(C)=O.CCCCCOC,n-butanol,CCCCO,89.0,30.0,23.1,99.58912769,40,1.0,0.3054,0.053708,"['CO', 'CC=O', '.', 'CCCCO']",['CCCCO'],"['CO', 'CC=O', '.', 'CCCCO']","[0, 0, 0, 0, 0, 2, 9, 1, 8]"
peba,C(C)=O.COC(C)=O.COC.CNCCCCCCCCCCCC(C)=O.CCCCCOC,n-butanol,CCCCO,89.0,30.0,23.1,99.95069532,29,1.0,0.063,0.057861,"['CO', 'CC=O', '.', 'CCCCO']",['CCCCO'],"['CO', 'CC=O', '.', 'CCCCO']","[0, 0, 0, 0, 0, 2, 9, 1, 8]"
peba,C(C)=O.COC(C)=O.COC.CNCCCCCCCCCCCC(C)=O.CCCCCOC,n-butanol,CCCCO,89.0,30.0,23.1,99.93046776,29,1.0,0.1157,0.063778,"['CO', 'CC=O', '.', 'CCCCO']",['CCCCO'],"['CO', 'CC=O', '.', 'CCCCO']","[0, 0, 0, 0, 0, 2, 9, 1, 8]"
peba,C(C)=O.COC(C)=O.COC.CNCCCCCCCCCCCC(C)=O.CCCCCOC,n-butanol,CCCCO,89.0,30.0,23.1,99.91782554,29,1.0,0.1172,0.071497,"['CO', 'CC=O', '.', 'CCCCO']",['CCCCO'],"['CO', 'CC=O', '.', 'CCCCO']","[0, 0, 0, 0, 0, 2, 9, 1, 8]"
peba,C(C)=O.COC(C)=O.COC.CNCCCCCCCCCCCC(C)=O.CCCCCOC,n-butanol,CCCCO,89.0,30.0,23.1,99.85208597,29,1.0,0.1167,0.077951,"['CO', 'CC=O', '.', 'CCCCO']",['CCCCO'],"['CO', 'CC=O', '.', 'CCCCO']","[0, 0, 0, 0, 0, 2, 9, 1, 8]"
peba,C(C)=O.COC(C)=O.COC.CNCCCCCCCCCCCC(C)=O.CCCCCOC,n-butanol,CCCCO,89.0,30.0,23.1,99.8091024,29,1.0,0.1317,0.07961,"['CO', 'CC=O', '.', 'CCCCO']",['CCCCO'],"['CO', 'CC=O', '.', 'CCCCO']","[0, 0, 0, 0, 0, 2, 9, 1, 8]"
peba,C(C)=O.COC(C)=O.COC.CNCCCCCCCCCCCC(C)=O.CCCCCOC,n-butanol,CCCCO,89.0,30.0,23.1,99.63211125,29,1.0,0.1562,0.07961,"['CO', 'CC=O', '.', 'CCCCO']",['CCCCO'],"['CO', 'CC=O', '.', 'CCCCO']","[0, 0, 0, 0, 0, 2, 9, 1, 8]"
peba,C(C)=O.COC(C)=O.COC.CNCCCCCCCCCCCC(C)=O.CCCCCOC,n-butanol,CCCCO,89.0,30.0,23.1,99.70417193,29,1.0,0.1348,0.081341,"['CO', 'CC=O', '.', 'CCCCO']",['CCCCO'],"['CO', 'CC=O', '.', 'CCCCO']","[0, 0, 0, 0, 0, 2, 9, 1, 8]"
peba,C(C)=O.COC(C)=O.COC.CNCCCCCCCCCCCC(C)=O.CCCCCOC,n-butanol,CCCCO,89.0,30.0,23.1,95.7,35,3.2,0.5704,0.033815,"['CO', 'CC=O', '.', 'CCCCO']",['CCCCO'],"['CO', 'CC=O', '.', 'CCCCO']","[0, 0, 0, 0, 0, 2, 9, 1, 8]"
peba,C(C)=O.COC(C)=O.COC.CNCCCCCCCCCCCC(C)=O.CCCCCOC,n-butanol,CCCCO,89.0,30.0,23.1,97.5,35,3.2,0.2656,0.039522,"['CO', 'CC=O', '.', 'CCCCO']",['CCCCO'],"['CO', 'CC=O', '.', 'CCCCO']","[0, 0, 0, 0, 0, 2, 9, 1, 8]"
peba,C(C)=O.COC(C)=O.COC.CNCCCCCCCCCCCC(C)=O.CCCCCOC,n-butanol,CCCCO,89.0,30.0,23.1,99.5,35,3.2,0.1576,0.057177,"['CO', 'CC=O', '.', 'CCCCO']",['CCCCO'],"['CO', 'CC=O', '.', 'CCCCO']","[0, 0, 0, 0, 0, 2, 9, 1, 8]"
peba,C(C)=O.COC(C)=O.COC.CNCCCCCCCCCCCC(C)=O.CCCCCOC,n-butanol,CCCCO,89.0,5.0,23.1,99.0,40,3.0,1.620111732,0.042619,"['CO', 'CC=O', '.', 'CCCCO']",['CCCCO'],"['CO', 'CC=O', '.', 'CCCCO']","[0, 0, 0, 0, 0, 2, 9, 1, 8]"
peba,C(C)=O.COC(C)=O.COC.CNCCCCCCCCCCCC(C)=O.CCCCCOC,n-butanol,CCCCO,89.0,3.5,23.1,98.0,40,3.0,2.5,0.046316,"['CO', 'CC=O', '.', 'CCCCO']",['CCCCO'],"['CO', 'CC=O', '.', 'CCCCO']","[0, 0, 0, 0, 0, 2, 9, 1, 8]"
peba,C(C)=O.COC(C)=O.COC.CNCCCCCCCCCCCC(C)=O.CCCCCOC,n-butanol,CCCCO,89.0,3.5,23.1,99.0,40,3.0,2.0,0.046667,"['CO', 'CC=O', '.', 'CCCCO']",['CCCCO'],"['CO', 'CC=O', '.', 'CCCCO']","[0, 0, 0, 0, 0, 2, 9, 1, 8]"
peba,C(C)=O.COC(C)=O.COC.CNCCCCCCCCCCCC(C)=O.CCCCCOC,n-butanol,CCCCO,89.0,3.5,23.1,99.0,50,3.0,3.0,0.046667,"['CO', 'CC=O', '.', 'CCCCO']",['CCCCO'],"['CO', 'CC=O', '.', 'CCCCO']","[0, 0, 0, 0, 0, 2, 9, 1, 8]"
peba,C(C)=O.COC(C)=O.COC.CNCCCCCCCCCCCC(C)=O.CCCCCOC,n-butanol,CCCCO,89.0,3.5,23.1,99.0,60,3.0,4.2,0.048611,"['CO', 'CC=O', '.', 'CCCCO']",['CCCCO'],"['CO', 'CC=O', '.', 'CCCCO']","[0, 0, 0, 0, 0, 2, 9, 1, 8]"
peba,C(C)=O.COC(C)=O.COC.CNCCCCCCCCCCCC(C)=O.CCCCCOC,n-butanol,CCCCO,89.0,3.5,23.1,97.0,40,3.0,3.181818182,0.049577,"['CO', 'CC=O', '.', 'CCCCO']",['CCCCO'],"['CO', 'CC=O', '.', 'CCCCO']","[0, 0, 0, 0, 0, 2, 9, 1, 8]"
peba,C(C)=O.COC(C)=O.COC.CNCCCCCCCCCCCC(C)=O.CCCCCOC,n-butanol,CCCCO,89.0,3.5,23.1,96.0,40,3.0,4.113636364,0.051014,"['CO', 'CC=O', '.', 'CCCCO']",['CCCCO'],"['CO', 'CC=O', '.', 'CCCCO']","[0, 0, 0, 0, 0, 2, 9, 1, 8]"
peba,C(C)=O.COC(C)=O.COC.CNCCCCCCCCCCCC(C)=O.CCCCCOC,n-butanol,CCCCO,89.0,3.5,23.1,99.0,30,3.0,1.028571429,0.054688,"['CO', 'CC=O', '.', 'CCCCO']",['CCCCO'],"['CO', 'CC=O', '.', 'CCCCO']","[0, 0, 0, 0, 0, 2, 9, 1, 8]"
peba,C(C)=O.COC(C)=O.COC.CNCCCCCCCCCCCC(C)=O.CCCCCOC,n-butanol,CCCCO,89.0,2.5,23.1,99.0,40,3.0,2.877094972,0.056825,"['CO', 'CC=O', '.', 'CCCCO']",['CCCCO'],"['CO', 'CC=O', '.', 'CCCCO']","[0, 0, 0, 0, 0, 2, 9, 1, 8]"
peba,C(C)=O.COC(C)=O.COC.CNCCCCCCCCCCCC(C)=O.CCCCCOC,n-butanol,CCCCO,89.0,3.5,23.1,99.0,25,3.0,0.885714286,0.066038,"['CO', 'CC=O', '.', 'CCCCO']",['CCCCO'],"['CO', 'CC=O', '.', 'CCCCO']","[0, 0, 0, 0, 0, 2, 9, 1, 8]"
peba,C(C)=O.COC(C)=O.COC.CNCCCCCCCCCCCC(C)=O.CCCCCOC,n-butanol,CCCCO,89.0,2.0,23.1,99.0,40,3.0,4.413407821,0.074583,"['CO', 'CC=O', '.', 'CCCCO']",['CCCCO'],"['CO', 'CC=O', '.', 'CCCCO']","[0, 0, 0, 0, 0, 2, 9, 1, 8]"
peba,C(C)=O.COC(C)=O.COC.CNCCCCCCCCCCCC(C)=O.CCCCCOC,n-butanol,CCCCO,89.0,7.0,23.1,96.3,34,1.3,1.043,0.107526882,"['CO', 'CC=O', '.', 'CCCCO']",['CCCCO'],"['CO', 'CC=O', '.', 'CCCCO']","[0, 0, 0, 0, 0, 2, 9, 1, 8]"
pdms,[Si](C)(C)(C)O(C),n-butanol,CCCCO,108.08219,20.0,23.1,99.0,40,2.1,0.775895765,0.024612,"['CO[Si](C)(C)C', '.', 'CCCCO']",['CCCCO'],"['CO[Si](C)(C)C', '.', 'CCCCO']","[0, 0, 0, 0, 0, 0, 7, 1, 8]"
pdms,[Si](C)(C)(C)O(C),n-butanol,CCCCO,108.08219,10.0,23.1,99.0,40,2.1,0.778,0.02457,"['CO[Si](C)(C)C', '.', 'CCCCO']",['CCCCO'],"['CO[Si](C)(C)C', '.', 'CCCCO']","[0, 0, 0, 0, 0, 0, 7, 1, 8]"
pdms,[Si](C)(C)(C)O(C),n-butanol,CCCCO,108.08219,10.0,23.1,99.0,40,2.1,0.805211726,0.024738,"['CO[Si](C)(C)C', '.', 'CCCCO']",['CCCCO'],"['CO[Si](C)(C)C', '.', 'CCCCO']","[0, 0, 0, 0, 0, 0, 7, 1, 8]"
pdms,[Si](C)(C)(C)O(C),n-butanol,CCCCO,108.08219,10.0,23.1,99.0,40,2.1,0.946,0.022523,"['CO[Si](C)(C)C', '.', 'CCCCO']",['CCCCO'],"['CO[Si](C)(C)C', '.', 'CCCCO']","[0, 0, 0, 0, 0, 0, 7, 1, 8]"
pdms,[Si](C)(C)(C)O(C),n-butanol,CCCCO,108.08219,10.0,23.1,99.5,40,2.1,1.064655172,0.021294,"['CO[Si](C)(C)C', '.', 'CCCCO']",['CCCCO'],"['CO[Si](C)(C)C', '.', 'CCCCO']","[0, 0, 0, 0, 0, 0, 7, 1, 8]"
pdms,[Si](C)(C)(C)O(C),n-butanol,CCCCO,108.08219,10.0,23.1,99.0,40,2.1,1.258358663,0.023305,"['CO[Si](C)(C)C', '.', 'CCCCO']",['CCCCO'],"['CO[Si](C)(C)C', '.', 'CCCCO']","[0, 0, 0, 0, 0, 0, 7, 1, 8]"
pdms,[Si](C)(C)(C)O(C),n-butanol,CCCCO,108.08219,10.0,23.1,99.0,40,2.1,1.282,0.02331,"['CO[Si](C)(C)C', '.', 'CCCCO']",['CCCCO'],"['CO[Si](C)(C)C', '.', 'CCCCO']","[0, 0, 0, 0, 0, 0, 7, 1, 8]"
pdms,[Si](C)(C)(C)O(C),n-butanol,CCCCO,108.08219,10.0,23.1,99.0,40,2.1,1.284482759,0.023294,"['CO[Si](C)(C)C', '.', 'CCCCO']",['CCCCO'],"['CO[Si](C)(C)C', '.', 'CCCCO']","[0, 0, 0, 0, 0, 0, 7, 1, 8]"
pdms,[Si](C)(C)(C)O(C),n-butanol,CCCCO,108.08219,10.0,23.1,98.0,40,2.1,1.620689655,0.024442,"['CO[Si](C)(C)C', '.', 'CCCCO']",['CCCCO'],"['CO[Si](C)(C)C', '.', 'CCCCO']","[0, 0, 0, 0, 0, 0, 7, 1, 8]"
pdms,[Si](C)(C)(C)O(C),n-butanol,CCCCO,108.08219,10.0,23.1,99.0,50,2.1,1.957446809,0.023605,"['CO[Si](C)(C)C', '.', 'CCCCO']",['CCCCO'],"['CO[Si](C)(C)C', '.', 'CCCCO']","[0, 0, 0, 0, 0, 0, 7, 1, 8]"
pdms,[Si](C)(C)(C)O(C),n-butanol,CCCCO,108.08219,10.0,23.1,97.0,40,2.1,1.989224138,0.025709,"['CO[Si](C)(C)C', '.', 'CCCCO']",['CCCCO'],"['CO[Si](C)(C)C', '.', 'CCCCO']","[0, 0, 0, 0, 0, 0, 7, 1, 8]"
pdms,[Si](C)(C)(C)O(C),n-butanol,CCCCO,108.08219,10.0,23.1,96.0,40,2.1,2.435344828,0.026436,"['CO[Si](C)(C)C', '.', 'CCCCO']",['CCCCO'],"['CO[Si](C)(C)C', '.', 'CCCCO']","[0, 0, 0, 0, 0, 0, 7, 1, 8]"
pdms,[Si](C)(C)(C)O(C),n-butanol,CCCCO,108.08219,10.0,23.1,99.0,60,2.1,2.671732523,0.025229,"['CO[Si](C)(C)C', '.', 'CCCCO']",['CCCCO'],"['CO[Si](C)(C)C', '.', 'CCCCO']","[0, 0, 0, 0, 0, 0, 7, 1, 8]"
pdms,[Si](C)(C)(C)O(C),n-butanol,CCCCO,108.08219,10.0,23.1,99.0,70,2.1,3.6443769,0.0275,"['CO[Si](C)(C)C', '.', 'CCCCO']",['CCCCO'],"['CO[Si](C)(C)C', '.', 'CCCCO']","[0, 0, 0, 0, 0, 0, 7, 1, 8]"
pdms,[Si](C)(C)(C)O(C),n-butanol,CCCCO,108.08219,10.0,23.1,99.0,80,2.1,4.76899696,0.028497,"['CO[Si](C)(C)C', '.', 'CCCCO']",['CCCCO'],"['CO[Si](C)(C)C', '.', 'CCCCO']","[0, 0, 0, 0, 0, 0, 7, 1, 8]"
pdms,[Si](C)(C)(C)O(C),n-butanol,CCCCO,108.08219,6.0,23.1,99.0,40,2.1,0.927361564,0.0283,"['CO[Si](C)(C)C', '.', 'CCCCO']",['CCCCO'],"['CO[Si](C)(C)C', '.', 'CCCCO']","[0, 0, 0, 0, 0, 0, 7, 1, 8]"
pdms,[Si](C)(C)(C)O(C),n-butanol,CCCCO,108.08219,4.0,23.1,99.0,40,2.1,1.240065147,0.033521,"['CO[Si](C)(C)C', '.', 'CCCCO']",['CCCCO'],"['CO[Si](C)(C)C', '.', 'CCCCO']","[0, 0, 0, 0, 0, 0, 7, 1, 8]"
pdms,[Si](C)(C)(C)O(C),n-butanol,CCCCO,108.08219,2.0,23.1,99.0,40,2.1,1.880130293,0.03863,"['CO[Si](C)(C)C', '.', 'CCCCO']",['CCCCO'],"['CO[Si](C)(C)C', '.', 'CCCCO']","[0, 0, 0, 0, 0, 0, 7, 1, 8]"
pdms,[Si](C)(C)(C)O(C),n-butanol,CCCCO,108.08219,10.0,23.1,98.5,55,2.0,0.8,0.023816,"['CO[Si](C)(C)C', '.', 'CCCCO']",['CCCCO'],"['CO[Si](C)(C)C', '.', 'CCCCO']","[0, 0, 0, 0, 0, 0, 7, 1, 8]"
pdms,[Si](C)(C)(C)O(C),n-butanol,CCCCO,108.08219,25.01414528,23.1,99.0,40,4.0,0.221771424,0.018849,"['CO[Si](C)(C)C', '.', 'CCCCO']",['CCCCO'],"['CO[Si](C)(C)C', '.', 'CCCCO']","[0, 0, 0, 0, 0, 0, 7, 1, 8]"
pdms,[Si](C)(C)(C)O(C),n-butanol,CCCCO,108.08219,15.02445855,23.1,99.0,40,4.0,0.382658555,0.017288,"['CO[Si](C)(C)C', '.', 'CCCCO']",['CCCCO'],"['CO[Si](C)(C)C', '.', 'CCCCO']","[0, 0, 0, 0, 0, 0, 7, 1, 8]"
pdms,[Si](C)(C)(C)O(C),n-butanol,CCCCO,108.08219,11.0661469,23.1,99.0,40,4.0,0.632996811,0.018719,"['CO[Si](C)(C)C', '.', 'CCCCO']",['CCCCO'],"['CO[Si](C)(C)C', '.', 'CCCCO']","[0, 0, 0, 0, 0, 0, 7, 1, 8]"
pdms,[Si](C)(C)(C)O(C),n-butanol,CCCCO,108.08219,5.551854971,23.1,99.0,40,4.0,0.610042672,0.022432,"['CO[Si](C)(C)C', '.', 'CCCCO']",['CCCCO'],"['CO[Si](C)(C)C', '.', 'CCCCO']","[0, 0, 0, 0, 0, 0, 7, 1, 8]"
pdms,[Si](C)(C)(C)O(C),n-butanol,CCCCO,108.08219,4.405094191,23.1,99.69,40,4.0,0.644444444,0.026829,"['CO[Si](C)(C)C', '.', 'CCCCO']",['CCCCO'],"['CO[Si](C)(C)C', '.', 'CCCCO']","[0, 0, 0, 0, 0, 0, 7, 1, 8]"
pdms,[Si](C)(C)(C)O(C),n-butanol,CCCCO,108.08219,4.405094191,23.1,99.0,30,4.0,0.7073,0.025529,"['CO[Si](C)(C)C', '.', 'CCCCO']",['CCCCO'],"['CO[Si](C)(C)C', '.', 'CCCCO']","[0, 0, 0, 0, 0, 0, 7, 1, 8]"
pdms,[Si](C)(C)(C)O(C),n-butanol,CCCCO,108.08219,4.405094191,23.1,99.0,40,4.0,0.720574516,0.02381,"['CO[Si](C)(C)C', '.', 'CCCCO']",['CCCCO'],"['CO[Si](C)(C)C', '.', 'CCCCO']","[0, 0, 0, 0, 0, 0, 7, 1, 8]"
pdms,[Si](C)(C)(C)O(C),n-butanol,CCCCO,108.08219,4.405094191,23.1,99.08,40,4.0,0.744444444,0.023971,"['CO[Si](C)(C)C', '.', 'CCCCO']",['CCCCO'],"['CO[Si](C)(C)C', '.', 'CCCCO']","[0, 0, 0, 0, 0, 0, 7, 1, 8]"
pdms,[Si](C)(C)(C)O(C),n-butanol,CCCCO,108.08219,4.405094191,23.1,99.0,40,4.0,0.769430052,0.023827,"['CO[Si](C)(C)C', '.', 'CCCCO']",['CCCCO'],"['CO[Si](C)(C)C', '.', 'CCCCO']","[0, 0, 0, 0, 0, 0, 7, 1, 8]"
pdms,[Si](C)(C)(C)O(C),n-butanol,CCCCO,108.08219,4.405094191,23.1,98.49333333,40,4.0,0.877777778,0.023404,"['CO[Si](C)(C)C', '.', 'CCCCO']",['CCCCO'],"['CO[Si](C)(C)C', '.', 'CCCCO']","[0, 0, 0, 0, 0, 0, 7, 1, 8]"
pdms,[Si](C)(C)(C)O(C),n-butanol,CCCCO,108.08219,4.405094191,23.1,97.88,40,4.0,0.977777778,0.022551,"['CO[Si](C)(C)C', '.', 'CCCCO']",['CCCCO'],"['CO[Si](C)(C)C', '.', 'CCCCO']","[0, 0, 0, 0, 0, 0, 7, 1, 8]"
pdms,[Si](C)(C)(C)O(C),n-butanol,CCCCO,108.08219,4.405094191,23.1,97.28,40,4.0,1.138888889,0.02129,"['CO[Si](C)(C)C', '.', 'CCCCO']",['CCCCO'],"['CO[Si](C)(C)C', '.', 'CCCCO']","[0, 0, 0, 0, 0, 0, 7, 1, 8]"
pdms,[Si](C)(C)(C)O(C),n-butanol,CCCCO,108.08219,4.405094191,23.1,99.0,50,4.0,1.183937824,0.022494,"['CO[Si](C)(C)C', '.', 'CCCCO']",['CCCCO'],"['CO[Si](C)(C)C', '.', 'CCCCO']","[0, 0, 0, 0, 0, 0, 7, 1, 8]"
pdms,[Si](C)(C)(C)O(C),n-butanol,CCCCO,108.08219,4.405094191,23.1,99.0,60,4.0,1.588082902,0.020887,"['CO[Si](C)(C)C', '.', 'CCCCO']",['CCCCO'],"['CO[Si](C)(C)C', '.', 'CCCCO']","[0, 0, 0, 0, 0, 0, 7, 1, 8]"
pdms,[Si](C)(C)(C)O(C),n-butanol,CCCCO,108.08219,4.405094191,23.1,99.0,70,4.0,2.20984456,0.021588,"['CO[Si](C)(C)C', '.', 'CCCCO']",['CCCCO'],"['CO[Si](C)(C)C', '.', 'CCCCO']","[0, 0, 0, 0, 0, 0, 7, 1, 8]"
pdms,[Si](C)(C)(C)O(C),n-butanol,CCCCO,110.0,13.3,23.1,99.0,40,1.0,0.282,0.025907,"['CO[Si](C)(C)C', '.', 'CCCCO']",['CCCCO'],"['CO[Si](C)(C)C', '.', 'CCCCO']","[0, 0, 0, 0, 0, 0, 7, 1, 8]"