Polymer,Polymer_SMILES,Solvent,Solvent_SMILES,Contact_angle,Thickness,Solvent_solubility_parameter,xw_(wt%),Temperature,Permeate_pressure,J_total_flux,a_separation_factor,Polymer_BRICS,Solvent_BRICS,PS_pair_BRICS,PS_tokenized_BRICS
pva,C(C)C(C)(O),ethanol,CCO,74.0,22.0,26.5,12.5,50,3.0,0.0559,82.22,"['CCC(C)O', '.', 'CCO']",['CCO'],"['CCC(C)O', '.', 'CCO']","[0, 0, 0, 0, 0, 0, 20, 1, 15]"
pva,C(C)C(C)(O),ethanol,CCO,74.0,22.0,26.5,12.5,50,3.0,0.0571,87.19,"['CCC(C)O', '.', 'CCO']",['CCO'],"['CCC(C)O', '.', 'CCO']","[0, 0, 0, 0, 0, 0, 20, 1, 15]"
pva,C(C)C(C)(O),ethanol,CCO,74.0,22.0,26.5,12.5,50,3.0,0.0571,75.07,"['CCC(C)O', '.', 'CCO']",['CCO'],"['CCC(C)O', '.', 'CCO']","[0, 0, 0, 0, 0, 0, 20, 1, 15]"
pva,C(C)C(C)(O),ethanol,CCO,74.0,22.0,26.5,12.5,50,3.0,0.058,90.14,"['CCC(C)O', '.', 'CCO']",['CCO'],"['CCC(C)O', '.', 'CCO']","[0, 0, 0, 0, 0, 0, 20, 1, 15]"
pva,C(C)C(C)(O),ipa,CC(C)O,74.0,22.0,23.5,12.5,50,3.0,0.0587,95.27,"['CCC(C)O', '.', 'CC(C)O']",['CC(C)O'],"['CCC(C)O', '.', 'CC(C)O']","[0, 0, 0, 0, 0, 0, 20, 1, 6]"
pva,C(C)C(C)(O),ipa,CC(C)O,74.0,22.0,23.5,15.0,40,3.0,0.0602,111.77,"['CCC(C)O', '.', 'CC(C)O']",['CC(C)O'],"['CCC(C)O', '.', 'CC(C)O']","[0, 0, 0, 0, 0, 0, 20, 1, 6]"
pva,C(C)C(C)(O),ethanol,CCO,74.0,22.0,26.5,15.0,40,3.0,0.0619,98.82,"['CCC(C)O', '.', 'CCO']",['CCO'],"['CCC(C)O', '.', 'CCO']","[0, 0, 0, 0, 0, 0, 20, 1, 15]"
pva,C(C)C(C)(O),ethanol,CCO,74.0,22.0,26.5,12.5,50,3.0,0.0621,84.37,"['CCC(C)O', '.', 'CCO']",['CCO'],"['CCC(C)O', '.', 'CCO']","[0, 0, 0, 0, 0, 0, 20, 1, 15]"
pva,C(C)C(C)(O),ethanol,CCO,74.0,22.0,26.5,12.5,50,3.0,0.0658,79.37,"['CCC(C)O', '.', 'CCO']",['CCO'],"['CCC(C)O', '.', 'CCO']","[0, 0, 0, 0, 0, 0, 20, 1, 15]"
pva,C(C)C(C)(O),ethanol,CCO,74.0,22.0,26.5,10.0,60,3.0,0.0678,105.93,"['CCC(C)O', '.', 'CCO']",['CCO'],"['CCC(C)O', '.', 'CCO']","[0, 0, 0, 0, 0, 0, 20, 1, 15]"
pva,C(C)C(C)(O),ipa,CC(C)O,74.0,22.0,23.5,10.0,60,3.0,0.0683,92.11,"['CCC(C)O', '.', 'CC(C)O']",['CC(C)O'],"['CCC(C)O', '.', 'CC(C)O']","[0, 0, 0, 0, 0, 0, 20, 1, 6]"
pva,C(C)C(C)(O),ethanol,CCO,74.0,22.0,26.5,12.5,50,3.0,0.0688,71.06,"['CCC(C)O', '.', 'CCO']",['CCO'],"['CCC(C)O', '.', 'CCO']","[0, 0, 0, 0, 0, 0, 20, 1, 15]"
pva,C(C)C(C)(O),ipa,CC(C)O,74.0,22.0,23.5,15.0,40,3.0,0.0711,105.89,"['CCC(C)O', '.', 'CC(C)O']",['CC(C)O'],"['CCC(C)O', '.', 'CC(C)O']","[0, 0, 0, 0, 0, 0, 20, 1, 6]"
pva,C(C)C(C)(O),ipa,CC(C)O,74.0,22.0,23.5,17.0,50,3.0,0.0764,103.3,"['CCC(C)O', '.', 'CC(C)O']",['CC(C)O'],"['CCC(C)O', '.', 'CC(C)O']","[0, 0, 0, 0, 0, 0, 20, 1, 6]"
pva,C(C)C(C)(O),ethanol,CCO,74.0,22.0,26.5,17.0,50,3.0,0.0846,88.26,"['CCC(C)O', '.', 'CCO']",['CCO'],"['CCC(C)O', '.', 'CCO']","[0, 0, 0, 0, 0, 0, 20, 1, 15]"
pva,C(C)C(C)(O),ipa,CC(C)O,74.0,22.0,23.5,15.0,60,3.0,0.0853,69.11,"['CCC(C)O', '.', 'CC(C)O']",['CC(C)O'],"['CCC(C)O', '.', 'CC(C)O']","[0, 0, 0, 0, 0, 0, 20, 1, 6]"
pva,C(C)C(C)(O),ipa,CC(C)O,74.0,22.0,23.5,15.0,60,3.0,0.0916,88.81,"['CCC(C)O', '.', 'CC(C)O']",['CC(C)O'],"['CCC(C)O', '.', 'CC(C)O']","[0, 0, 0, 0, 0, 0, 20, 1, 6]"
pva,C(C)C(C)(O),ipa,CC(C)O,74.0,22.0,23.5,10.0,60,3.0,0.0977,87.81,"['CCC(C)O', '.', 'CC(C)O']",['CC(C)O'],"['CCC(C)O', '.', 'CC(C)O']","[0, 0, 0, 0, 0, 0, 20, 1, 6]"
pva,C(C)C(C)(O),ethanol,CCO,74.0,22.0,26.5,12.5,67,3.0,0.1012,48.59,"['CCC(C)O', '.', 'CCO']",['CCO'],"['CCC(C)O', '.', 'CCO']","[0, 0, 0, 0, 0, 0, 20, 1, 15]"
pva,C(C)C(C)(O),ethanol,CCO,74.0,22.0,26.5,15.0,60,3.0,0.1084,41.1,"['CCC(C)O', '.', 'CCO']",['CCO'],"['CCC(C)O', '.', 'CCO']","[0, 0, 0, 0, 0, 0, 20, 1, 15]"
pva,C(C)C(C)(O),ethanol,CCO,74.0,22.0,26.5,15.0,60,3.0,0.11,52.64,"['CCC(C)O', '.', 'CCO']",['CCO'],"['CCC(C)O', '.', 'CCO']","[0, 0, 0, 0, 0, 0, 20, 1, 15]"
pva,C(C)C(C)(O),ipa,CC(C)O,74.0,22.0,23.5,12.5,67,3.0,0.1139,60.83,"['CCC(C)O', '.', 'CC(C)O']",['CC(C)O'],"['CCC(C)O', '.', 'CC(C)O']","[0, 0, 0, 0, 0, 0, 20, 1, 6]"
pva,C(C)C(C)(O),ipa,CC(C)O,74.0,25.0,23.5,10.0,30,2.0,0.1505,125.0,"['CCC(C)O', '.', 'CC(C)O']",['CC(C)O'],"['CCC(C)O', '.', 'CC(C)O']","[0, 0, 0, 0, 0, 0, 20, 1, 6]"
pva,C(C)C(C)(O),ipa,CC(C)O,74.0,50.0,23.5,10.0,30,6.7,0.1324,163.418803,"['CCC(C)O', '.', 'CC(C)O']",['CC(C)O'],"['CCC(C)O', '.', 'CC(C)O']","[0, 0, 0, 0, 0, 0, 20, 1, 6]"
pva,C(C)C(C)(O),ipa,CC(C)O,74.0,50.0,23.5,10.0,40,0.06,0.1556,55.0,"['CCC(C)O', '.', 'CC(C)O']",['CC(C)O'],"['CCC(C)O', '.', 'CC(C)O']","[0, 0, 0, 0, 0, 0, 20, 1, 6]"
pva,C(C)C(C)(O),ipa,CC(C)O,74.0,50.0,23.5,10.0,50,0.06,0.1886,36.0,"['CCC(C)O', '.', 'CC(C)O']",['CC(C)O'],"['CCC(C)O', '.', 'CC(C)O']","[0, 0, 0, 0, 0, 0, 20, 1, 6]"
pva,C(C)C(C)(O),ipa,CC(C)O,74.0,50.0,23.5,10.0,60,0.06,0.2,23.0,"['CCC(C)O', '.', 'CC(C)O']",['CC(C)O'],"['CCC(C)O', '.', 'CC(C)O']","[0, 0, 0, 0, 0, 0, 20, 1, 6]"
chitosan,NC2C(O)C(OC1OC(CO)C(O(C))C(O)C1N)C(CO)OC2(C),ipa,CC(C)O,55.1,45.0,23.5,5.0,60,3.0,0.127,3124.966463,"['CO', 'O', 'CO', 'CC1OCCC(O)C1N', 'NC1COCCC1O', '.', 'CC(C)O']",['CC(C)O'],"['CO', 'O', 'CO', 'CC1OCCC(O)C1N', 'NC1COCCC1O', '.', 'CC(C)O']","[0, 0, 2, 3, 2, 4, 5, 1, 6]"
chitosan,NC2C(O)C(OC1OC(CO)C(O(C))C(O)C1N)C(CO)OC2(C),ethanol,CCO,55.1,45.0,26.5,5.0,60,3.0,0.1438,444.991431,"['CO', 'O', 'CO', 'CC1OCCC(O)C1N', 'NC1COCCC1O', '.', 'CCO']",['CCO'],"['CO', 'O', 'CO', 'CC1OCCC(O)C1N', 'NC1COCCC1O', '.', 'CCO']","[0, 0, 2, 3, 2, 4, 5, 1, 15]"
alginate,O=C(O)C1OC(C)C(O)C(O)C1O(C).O=C(O)C1OC(C)C(O)C(O)C1O(C),ethanol,CCO,37.37,45.0,26.5,5.0,60,3.0,0.2195,5587.953034,"['CO', 'O=CO', 'CC1OCCC(O)C1O', '.', 'CCO']",['CCO'],"['CO', 'O=CO', 'CC1OCCC(O)C1O', '.', 'CCO']","[0, 0, 0, 0, 2, 21, 22, 1, 15]"
alginate,O=C(O)C1OC(C)C(O)C(O)C1O(C).O=C(O)C1OC(C)C(O)C(O)C1O(C),ipa,CC(C)O,37.37,45.0,23.5,5.0,60,3.0,0.2328,3603.305055,"['CO', 'O=CO', 'CC1OCCC(O)C1O', '.', 'CC(C)O']",['CC(C)O'],"['CO', 'O=CO', 'CC1OCCC(O)C1O', '.', 'CC(C)O']","[0, 0, 0, 0, 2, 21, 22, 1, 6]"
chitosan,NC2C(O)C(OC1OC(CO)C(O(C))C(O)C1N)C(CO)OC2(C),ethanol,CCO,55.1,45.0,26.5,10.0,60,3.0,0.2876,178.956407,"['CO', 'O', 'CO', 'CC1OCCC(O)C1N', 'NC1COCCC1O', '.', 'CCO']",['CCO'],"['CO', 'O', 'CO', 'CC1OCCC(O)C1N', 'NC1COCCC1O', '.', 'CCO']","[0, 0, 2, 3, 2, 4, 5, 1, 15]"
chitosan,NC2C(O)C(OC1OC(CO)C(O(C))C(O)C1N)C(CO)OC2(C),ipa,CC(C)O,55.1,45.0,23.5,10.0,60,3.0,0.2963,1533.087739,"['CO', 'O', 'CO', 'CC1OCCC(O)C1N', 'NC1COCCC1O', '.', 'CC(C)O']",['CC(C)O'],"['CO', 'O', 'CO', 'CC1OCCC(O)C1N', 'NC1COCCC1O', '.', 'CC(C)O']","[0, 0, 2, 3, 2, 4, 5, 1, 6]"
alginate,O=C(O)C1OC(C)C(O)C(O)C1O(C).O=C(O)C1OC(C)C(O)C(O)C1O(C),ethanol,CCO,37.37,45.0,26.5,10.0,60,3.0,0.3103,2363.885157,"['CO', 'O=CO', 'CC1OCCC(O)C1O', '.', 'CCO']",['CCO'],"['CO', 'O=CO', 'CC1OCCC(O)C1O', '.', 'CCO']","[0, 0, 0, 0, 2, 21, 22, 1, 15]"
alginate,O=C(O)C1OC(C)C(O)C(O)C1O(C).O=C(O)C1OC(C)C(O)C(O)C1O(C),ethanol,CCO,37.37,45.0,26.5,20.0,60,3.0,0.5297,1499.077811,"['CO', 'O=CO', 'CC1OCCC(O)C1O', '.', 'CCO']",['CCO'],"['CO', 'O=CO', 'CC1OCCC(O)C1O', '.', 'CCO']","[0, 0, 0, 0, 2, 21, 22, 1, 15]"
chitosan,NC2C(O)C(OC1OC(CO)C(O(C))C(O)C1N)C(CO)OC2(C),ethanol,CCO,55.1,45.0,26.5,20.0,60,3.0,0.6962,75.704358,"['CO', 'O', 'CO', 'CC1OCCC(O)C1N', 'NC1COCCC1O', '.', 'CCO']",['CCO'],"['CO', 'O', 'CO', 'CC1OCCC(O)C1N', 'NC1COCCC1O', '.', 'CCO']","[0, 0, 2, 3, 2, 4, 5, 1, 15]"
chitosan,NC2C(O)C(OC1OC(CO)C(O(C))C(O)C1N)C(CO)OC2(C),ipa,CC(C)O,55.1,45.0,23.5,20.0,60,3.0,0.8889,386.926848,"['CO', 'O', 'CO', 'CC1OCCC(O)C1N', 'NC1COCCC1O', '.', 'CC(C)O']",['CC(C)O'],"['CO', 'O', 'CO', 'CC1OCCC(O)C1N', 'NC1COCCC1O', '.', 'CC(C)O']","[0, 0, 2, 3, 2, 4, 5, 1, 6]"
alginate,O=C(O)C1OC(C)C(O)C(O)C1O(C).O=C(O)C1OC(C)C(O)C(O)C1O(C),ethanol,CCO,37.37,45.0,26.5,30.0,60,3.0,1.0065,1287.923625,"['CO', 'O=CO', 'CC1OCCC(O)C1O', '.', 'CCO']",['CCO'],"['CO', 'O=CO', 'CC1OCCC(O)C1O', '.', 'CCO']","[0, 0, 0, 0, 2, 21, 22, 1, 15]"
chitosan,NC2C(O)C(OC1OC(CO)C(O(C))C(O)C1N)C(CO)OC2(C),ethanol,CCO,55.1,45.0,26.5,30.0,60,3.0,1.2486,41.246264,"['CO', 'O', 'CO', 'CC1OCCC(O)C1N', 'NC1COCCC1O', '.', 'CCO']",['CCO'],"['CO', 'O', 'CO', 'CC1OCCC(O)C1N', 'NC1COCCC1O', '.', 'CCO']","[0, 0, 2, 3, 2, 4, 5, 1, 15]"
chitosan,NC2C(O)C(OC1OC(CO)C(O(C))C(O)C1N)C(CO)OC2(C),ipa,CC(C)O,55.1,45.0,23.5,30.0,60,3.0,1.7778,118.076902,"['CO', 'O', 'CO', 'CC1OCCC(O)C1N', 'NC1COCCC1O', '.', 'CC(C)O']",['CC(C)O'],"['CO', 'O', 'CO', 'CC1OCCC(O)C1N', 'NC1COCCC1O', '.', 'CC(C)O']","[0, 0, 2, 3, 2, 4, 5, 1, 6]"
alginate,O=C(O)C1OC(C)C(O)C(O)C1O(C).O=C(O)C1OC(C)C(O)C(O)C1O(C),ipa,CC(C)O,37.37,45.0,23.5,20.0,60,3.0,2.0317,1394.215469,"['CO', 'O=CO', 'CC1OCCC(O)C1O', '.', 'CC(C)O']",['CC(C)O'],"['CO', 'O=CO', 'CC1OCCC(O)C1O', '.', 'CC(C)O']","[0, 0, 0, 0, 2, 21, 22, 1, 6]"
alginate,O=C(O)C1OC(C)C(O)C(O)C1O(C).O=C(O)C1OC(C)C(O)C(O)C1O(C),ipa,CC(C)O,37.37,45.0,23.5,30.0,60,3.0,3.619,1000.0,"['CO', 'O=CO', 'CC1OCCC(O)C1O', '.', 'CC(C)O']",['CC(C)O'],"['CO', 'O=CO', 'CC1OCCC(O)C1O', '.', 'CC(C)O']","[0, 0, 0, 0, 2, 21, 22, 1, 6]"
alginate,O=C(O)C1OC(C)C(O)C(O)C1O(C).O=C(O)C1OC(C)C(O)C(O)C1O(C),ipa,CC(C)O,37.37,40.0,23.5,5.0,30,1.33,0.0506,385.26,"['CO', 'O=CO', 'CC1OCCC(O)C1O', '.', 'CC(C)O']",['CC(C)O'],"['CO', 'O=CO', 'CC1OCCC(O)C1O', '.', 'CC(C)O']","[0, 0, 0, 0, 2, 21, 22, 1, 6]"
alginate,O=C(O)C1OC(C)C(O)C(O)C1O(C).O=C(O)C1OC(C)C(O)C(O)C1O(C),ipa,CC(C)O,37.37,40.0,23.5,10.0,30,1.33,0.0677,171.0,"['CO', 'O=CO', 'CC1OCCC(O)C1O', '.', 'CC(C)O']",['CC(C)O'],"['CO', 'O=CO', 'CC1OCCC(O)C1O', '.', 'CC(C)O']","[0, 0, 0, 0, 2, 21, 22, 1, 6]"
alginate,O=C(O)C1OC(C)C(O)C(O)C1O(C).O=C(O)C1OC(C)C(O)C(O)C1O(C),ipa,CC(C)O,37.37,40.0,23.5,10.0,40,1.33,0.0753,123.35,"['CO', 'O=CO', 'CC1OCCC(O)C1O', '.', 'CC(C)O']",['CC(C)O'],"['CO', 'O=CO', 'CC1OCCC(O)C1O', '.', 'CC(C)O']","[0, 0, 0, 0, 2, 21, 22, 1, 6]"
alginate,O=C(O)C1OC(C)C(O)C(O)C1O(C).O=C(O)C1OC(C)C(O)C(O)C1O(C),ipa,CC(C)O,37.37,40.0,23.5,15.0,30,1.33,0.0998,103.31,"['CO', 'O=CO', 'CC1OCCC(O)C1O', '.', 'CC(C)O']",['CC(C)O'],"['CO', 'O=CO', 'CC1OCCC(O)C1O', '.', 'CC(C)O']","[0, 0, 0, 0, 2, 21, 22, 1, 6]"
alginate,O=C(O)C1OC(C)C(O)C(O)C1O(C).O=C(O)C1OC(C)C(O)C(O)C1O(C),ipa,CC(C)O,37.37,40.0,23.5,20.0,30,1.33,0.0999,62.67,"['CO', 'O=CO', 'CC1OCCC(O)C1O', '.', 'CC(C)O']",['CC(C)O'],"['CO', 'O=CO', 'CC1OCCC(O)C1O', '.', 'CC(C)O']","[0, 0, 0, 0, 2, 21, 22, 1, 6]"
alginate,O=C(O)C1OC(C)C(O)C(O)C1O(C).O=C(O)C1OC(C)C(O)C(O)C1O(C),ipa,CC(C)O,37.37,40.0,23.5,25.0,30,1.33,0.1,27.0,"['CO', 'O=CO', 'CC1OCCC(O)C1O', '.', 'CC(C)O']",['CC(C)O'],"['CO', 'O=CO', 'CC1OCCC(O)C1O', '.', 'CC(C)O']","[0, 0, 0, 0, 2, 21, 22, 1, 6]"
alginate,O=C(O)C1OC(C)C(O)C(O)C1O(C).O=C(O)C1OC(C)C(O)C(O)C1O(C),ipa,CC(C)O,37.37,40.0,23.5,10.0,50,1.33,0.157,87.77,"['CO', 'O=CO', 'CC1OCCC(O)C1O', '.', 'CC(C)O']",['CC(C)O'],"['CO', 'O=CO', 'CC1OCCC(O)C1O', '.', 'CC(C)O']","[0, 0, 0, 0, 2, 21, 22, 1, 6]"
alginate,O=C(O)C1OC(C)C(O)C(O)C1O(C).O=C(O)C1OC(C)C(O)C(O)C1O(C),acetic_acid,CC(=O)O,37.37,30.0,21.4,10.0,30,13.3,0.022,15.7,"['CO', 'O=CO', 'CC1OCCC(O)C1O', '.', 'CC(=O)O']",['CC(=O)O'],"['CO', 'O=CO', 'CC1OCCC(O)C1O', '.', 'CC(=O)O']","[0, 0, 0, 0, 2, 21, 22, 1, 23]"
alginate,O=C(O)C1OC(C)C(O)C(O)C1O(C).O=C(O)C1OC(C)C(O)C(O)C1O(C),acetic_acid,CC(=O)O,37.37,30.0,21.4,20.0,30,13.3,0.069,21.8,"['CO', 'O=CO', 'CC1OCCC(O)C1O', '.', 'CC(=O)O']",['CC(=O)O'],"['CO', 'O=CO', 'CC1OCCC(O)C1O', '.', 'CC(=O)O']","[0, 0, 0, 0, 2, 21, 22, 1, 23]"
alginate,O=C(O)C1OC(C)C(O)C(O)C1O(C).O=C(O)C1OC(C)C(O)C(O)C1O(C),acetic_acid,CC(=O)O,37.37,30.0,21.4,30.0,30,13.3,0.258,6.31,"['CO', 'O=CO', 'CC1OCCC(O)C1O', '.', 'CC(=O)O']",['CC(=O)O'],"['CO', 'O=CO', 'CC1OCCC(O)C1O', '.', 'CC(=O)O']","[0, 0, 0, 0, 2, 21, 22, 1, 23]"
alginate,O=C(O)C1OC(C)C(O)C(O)C1O(C).O=C(O)C1OC(C)C(O)C(O)C1O(C),acetic_acid,CC(=O)O,37.37,30.0,21.4,50.0,30,13.3,0.477,2.7,"['CO', 'O=CO', 'CC1OCCC(O)C1O', '.', 'CC(=O)O']",['CC(=O)O'],"['CO', 'O=CO', 'CC1OCCC(O)C1O', '.', 'CC(=O)O']","[0, 0, 0, 0, 2, 21, 22, 1, 23]"
alginate,O=C(O)C1OC(C)C(O)C(O)C1O(C).O=C(O)C1OC(C)C(O)C(O)C1O(C),acetic_acid,CC(=O)O,37.37,30.0,21.4,40.0,30,13.3,0.485,3.96,"['CO', 'O=CO', 'CC1OCCC(O)C1O', '.', 'CC(=O)O']",['CC(=O)O'],"['CO', 'O=CO', 'CC1OCCC(O)C1O', '.', 'CC(=O)O']","[0, 0, 0, 0, 2, 21, 22, 1, 23]"
alginate,O=C(O)C1OC(C)C(O)C(O)C1O(C).O=C(O)C1OC(C)C(O)C(O)C1O(C),ethanol,CCO,37.37,10.0,26.5,5.0,30,13.3,0.028,22.331303,"['CO', 'O=CO', 'CC1OCCC(O)C1O', '.', 'CCO']",['CCO'],"['CO', 'O=CO', 'CC1OCCC(O)C1O', '.', 'CCO']","[0, 0, 0, 0, 2, 21, 22, 1, 15]"
alginate,O=C(O)C1OC(C)C(O)C(O)C1O(C).O=C(O)C1OC(C)C(O)C(O)C1O(C),ethanol,CCO,37.37,10.0,26.5,4.0,40,13.3,0.036,27.914341,"['CO', 'O=CO', 'CC1OCCC(O)C1O', '.', 'CCO']",['CCO'],"['CO', 'O=CO', 'CC1OCCC(O)C1O', '.', 'CCO']","[0, 0, 0, 0, 2, 21, 22, 1, 15]"
alginate,O=C(O)C1OC(C)C(O)C(O)C1O(C).O=C(O)C1OC(C)C(O)C(O)C1O(C),ethanol,CCO,37.37,10.0,26.5,10.0,30,13.3,0.036,10.556714,"['CO', 'O=CO', 'CC1OCCC(O)C1O', '.', 'CCO']",['CCO'],"['CO', 'O=CO', 'CC1OCCC(O)C1O', '.', 'CCO']","[0, 0, 0, 0, 2, 21, 22, 1, 15]"
alginate,O=C(O)C1OC(C)C(O)C(O)C1O(C).O=C(O)C1OC(C)C(O)C(O)C1O(C),ethanol,CCO,37.37,10.0,26.5,15.0,30,13.3,0.053,6.58029,"['CO', 'O=CO', 'CC1OCCC(O)C1O', '.', 'CCO']",['CCO'],"['CO', 'O=CO', 'CC1OCCC(O)C1O', '.', 'CCO']","[0, 0, 0, 0, 2, 21, 22, 1, 15]"
alginate,O=C(O)C1OC(C)C(O)C(O)C1O(C).O=C(O)C1OC(C)C(O)C(O)C1O(C),ethanol,CCO,37.37,10.0,26.5,4.0,50,13.3,0.098,25.792531,"['CO', 'O=CO', 'CC1OCCC(O)C1O', '.', 'CCO']",['CCO'],"['CO', 'O=CO', 'CC1OCCC(O)C1O', '.', 'CCO']","[0, 0, 0, 0, 2, 21, 22, 1, 15]"
alginate,O=C(O)C1OC(C)C(O)C(O)C1O(C).O=C(O)C1OC(C)C(O)C(O)C1O(C),ethanol,CCO,37.37,10.0,26.5,4.0,60,13.3,0.121,23.932894,"['CO', 'O=CO', 'CC1OCCC(O)C1O', '.', 'CCO']",['CCO'],"['CO', 'O=CO', 'CC1OCCC(O)C1O', '.', 'CCO']","[0, 0, 0, 0, 2, 21, 22, 1, 15]"
alginate,O=C(O)C1OC(C)C(O)C(O)C1O(C).O=C(O)C1OC(C)C(O)C(O)C1O(C),ipa,CC(C)O,37.37,10.0,23.5,10.0,30,13.3,0.133,2423.432432,"['CO', 'O=CO', 'CC1OCCC(O)C1O', '.', 'CC(C)O']",['CC(C)O'],"['CO', 'O=CO', 'CC1OCCC(O)C1O', '.', 'CC(C)O']","[0, 0, 0, 0, 2, 21, 22, 1, 6]"
alginate,O=C(O)C1OC(C)C(O)C(O)C1O(C).O=C(O)C1OC(C)C(O)C(O)C1O(C),ipa,CC(C)O,37.37,10.0,23.5,15.0,30,13.3,0.167,357.581197,"['CO', 'O=CO', 'CC1OCCC(O)C1O', '.', 'CC(C)O']",['CC(C)O'],"['CO', 'O=CO', 'CC1OCCC(O)C1O', '.', 'CC(C)O']","[0, 0, 0, 0, 2, 21, 22, 1, 6]"
alginate,O=C(O)C1OC(C)C(O)C(O)C1O(C).O=C(O)C1OC(C)C(O)C(O)C1O(C),ethanol,CCO,37.37,10.0,26.5,4.0,70,13.3,0.173,21.67079,"['CO', 'O=CO', 'CC1OCCC(O)C1O', '.', 'CCO']",['CCO'],"['CO', 'O=CO', 'CC1OCCC(O)C1O', '.', 'CCO']","[0, 0, 0, 0, 2, 21, 22, 1, 15]"
alginate,O=C(O)C1OC(C)C(O)C(O)C1O(C).O=C(O)C1OC(C)C(O)C(O)C1O(C),ipa,CC(C)O,37.37,10.0,23.5,12.6,40,13.3,0.183,534.978175,"['CO', 'O=CO', 'CC1OCCC(O)C1O', '.', 'CC(C)O']",['CC(C)O'],"['CO', 'O=CO', 'CC1OCCC(O)C1O', '.', 'CC(C)O']","[0, 0, 0, 0, 2, 21, 22, 1, 6]"
alginate,O=C(O)C1OC(C)C(O)C(O)C1O(C).O=C(O)C1OC(C)C(O)C(O)C1O(C),ipa,CC(C)O,37.37,10.0,23.5,12.6,50,13.3,0.204,285.743152,"['CO', 'O=CO', 'CC1OCCC(O)C1O', '.', 'CC(C)O']",['CC(C)O'],"['CO', 'O=CO', 'CC1OCCC(O)C1O', '.', 'CC(C)O']","[0, 0, 0, 0, 2, 21, 22, 1, 6]"
alginate,O=C(O)C1OC(C)C(O)C(O)C1O(C).O=C(O)C1OC(C)C(O)C(O)C1O(C),ipa,CC(C)O,37.37,10.0,23.5,20.0,30,13.3,0.232,223.272727,"['CO', 'O=CO', 'CC1OCCC(O)C1O', '.', 'CC(C)O']",['CC(C)O'],"['CO', 'O=CO', 'CC1OCCC(O)C1O', '.', 'CC(C)O']","[0, 0, 0, 0, 2, 21, 22, 1, 6]"
alginate,O=C(O)C1OC(C)C(O)C(O)C1O(C).O=C(O)C1OC(C)C(O)C(O)C1O(C),ipa,CC(C)O,37.37,10.0,23.5,12.6,60,13.3,0.287,196.480147,"['CO', 'O=CO', 'CC1OCCC(O)C1O', '.', 'CC(C)O']",['CC(C)O'],"['CO', 'O=CO', 'CC1OCCC(O)C1O', '.', 'CC(C)O']","[0, 0, 0, 0, 2, 21, 22, 1, 6]"
alginate,O=C(O)C1OC(C)C(O)C(O)C1O(C).O=C(O)C1OC(C)C(O)C(O)C1O(C),ipa,CC(C)O,37.37,10.0,23.5,12.6,70,13.3,0.332,159.806471,"['CO', 'O=CO', 'CC1OCCC(O)C1O', '.', 'CC(C)O']",['CC(C)O'],"['CO', 'O=CO', 'CC1OCCC(O)C1O', '.', 'CC(C)O']","[0, 0, 0, 0, 2, 21, 22, 1, 6]"
alginate,O=C(O)C1OC(C)C(O)C(O)C1O(C).O=C(O)C1OC(C)C(O)C(O)C1O(C),ipa,CC(C)O,37.37,50.0,23.5,10.0,30,13.3,0.062,653.0,"['CO', 'O=CO', 'CC1OCCC(O)C1O', '.', 'CC(C)O']",['CC(C)O'],"['CO', 'O=CO', 'CC1OCCC(O)C1O', '.', 'CC(C)O']","[0, 0, 0, 0, 2, 21, 22, 1, 6]"
alginate,O=C(O)C1OC(C)C(O)C(O)C1O(C).O=C(O)C1OC(C)C(O)C(O)C1O(C),ipa,CC(C)O,37.37,50.0,23.5,12.6,30,13.3,0.068,340.0,"['CO', 'O=CO', 'CC1OCCC(O)C1O', '.', 'CC(C)O']",['CC(C)O'],"['CO', 'O=CO', 'CC1OCCC(O)C1O', '.', 'CC(C)O']","[0, 0, 0, 0, 2, 21, 22, 1, 6]"
alginate,O=C(O)C1OC(C)C(O)C(O)C1O(C).O=C(O)C1OC(C)C(O)C(O)C1O(C),ipa,CC(C)O,37.37,50.0,23.5,12.6,40,13.3,0.072,243.0,"['CO', 'O=CO', 'CC1OCCC(O)C1O', '.', 'CC(C)O']",['CC(C)O'],"['CO', 'O=CO', 'CC1OCCC(O)C1O', '.', 'CC(C)O']","[0, 0, 0, 0, 2, 21, 22, 1, 6]"
alginate,O=C(O)C1OC(C)C(O)C(O)C1O(C).O=C(O)C1OC(C)C(O)C(O)C1O(C),ipa,CC(C)O,37.37,50.0,23.5,20.0,30,13.3,0.075,189.0,"['CO', 'O=CO', 'CC1OCCC(O)C1O', '.', 'CC(C)O']",['CC(C)O'],"['CO', 'O=CO', 'CC1OCCC(O)C1O', '.', 'CC(C)O']","[0, 0, 0, 0, 2, 21, 22, 1, 6]"
alginate,O=C(O)C1OC(C)C(O)C(O)C1O(C).O=C(O)C1OC(C)C(O)C(O)C1O(C),ipa,CC(C)O,37.37,50.0,23.5,12.6,50,13.3,0.08,174.0,"['CO', 'O=CO', 'CC1OCCC(O)C1O', '.', 'CC(C)O']",['CC(C)O'],"['CO', 'O=CO', 'CC1OCCC(O)C1O', '.', 'CC(C)O']","[0, 0, 0, 0, 2, 21, 22, 1, 6]"
alginate,O=C(O)C1OC(C)C(O)C(O)C1O(C).O=C(O)C1OC(C)C(O)C(O)C1O(C),ipa,CC(C)O,37.37,50.0,23.5,12.6,60,13.3,0.084,140.0,"['CO', 'O=CO', 'CC1OCCC(O)C1O', '.', 'CC(C)O']",['CC(C)O'],"['CO', 'O=CO', 'CC1OCCC(O)C1O', '.', 'CC(C)O']","[0, 0, 0, 0, 2, 21, 22, 1, 6]"
alginate,O=C(O)C1OC(C)C(O)C(O)C1O(C).O=C(O)C1OC(C)C(O)C(O)C1O(C),ipa,CC(C)O,37.37,50.0,23.5,12.6,70,13.3,0.087,109.0,"['CO', 'O=CO', 'CC1OCCC(O)C1O', '.', 'CC(C)O']",['CC(C)O'],"['CO', 'O=CO', 'CC1OCCC(O)C1O', '.', 'CC(C)O']","[0, 0, 0, 0, 2, 21, 22, 1, 6]"
alginate,O=C(O)C1OC(C)C(O)C(O)C1O(C).O=C(O)C1OC(C)C(O)C(O)C1O(C),ipa,CC(C)O,37.37,50.0,23.5,30.0,30,13.3,0.087,85.0,"['CO', 'O=CO', 'CC1OCCC(O)C1O', '.', 'CC(C)O']",['CC(C)O'],"['CO', 'O=CO', 'CC1OCCC(O)C1O', '.', 'CC(C)O']","[0, 0, 0, 0, 2, 21, 22, 1, 6]"
alginate,O=C(O)C1OC(C)C(O)C(O)C1O(C).O=C(O)C1OC(C)C(O)C(O)C1O(C),ipa,CC(C)O,37.37,50.0,23.5,40.0,30,13.3,0.127,38.0,"['CO', 'O=CO', 'CC1OCCC(O)C1O', '.', 'CC(C)O']",['CC(C)O'],"['CO', 'O=CO', 'CC1OCCC(O)C1O', '.', 'CC(C)O']","[0, 0, 0, 0, 2, 21, 22, 1, 6]"
alginate,O=C(O)C1OC(C)C(O)C(O)C1O(C).O=C(O)C1OC(C)C(O)C(O)C1O(C),ipa,CC(C)O,37.37,50.0,23.5,50.0,30,13.3,0.133,25.0,"['CO', 'O=CO', 'CC1OCCC(O)C1O', '.', 'CC(C)O']",['CC(C)O'],"['CO', 'O=CO', 'CC1OCCC(O)C1O', '.', 'CC(C)O']","[0, 0, 0, 0, 2, 21, 22, 1, 6]"
alginate,O=C(O)C1OC(C)C(O)C(O)C1O(C).O=C(O)C1OC(C)C(O)C(O)C1O(C),ethanol,CCO,37.37,62.5,26.5,10.0,30,13.3,0.027,35.0,"['CO', 'O=CO', 'CC1OCCC(O)C1O', '.', 'CCO']",['CCO'],"['CO', 'O=CO', 'CC1OCCC(O)C1O', '.', 'CCO']","[0, 0, 0, 0, 2, 21, 22, 1, 15]"
alginate,O=C(O)C1OC(C)C(O)C(O)C1O(C).O=C(O)C1OC(C)C(O)C(O)C1O(C),ethanol,CCO,37.37,62.5,26.5,20.0,30,13.3,0.04,12.0,"['CO', 'O=CO', 'CC1OCCC(O)C1O', '.', 'CCO']",['CCO'],"['CO', 'O=CO', 'CC1OCCC(O)C1O', '.', 'CCO']","[0, 0, 0, 0, 2, 21, 22, 1, 15]"
alginate,O=C(O)C1OC(C)C(O)C(O)C1O(C).O=C(O)C1OC(C)C(O)C(O)C1O(C),ethanol,CCO,37.37,62.5,26.5,30.0,30,13.3,0.042,6.0,"['CO', 'O=CO', 'CC1OCCC(O)C1O', '.', 'CCO']",['CCO'],"['CO', 'O=CO', 'CC1OCCC(O)C1O', '.', 'CCO']","[0, 0, 0, 0, 2, 21, 22, 1, 15]"
alginate,O=C(O)C1OC(C)C(O)C(O)C1O(C).O=C(O)C1OC(C)C(O)C(O)C1O(C),ipa,CC(C)O,37.37,62.5,23.5,10.0,30,13.3,0.067,653.0,"['CO', 'O=CO', 'CC1OCCC(O)C1O', '.', 'CC(C)O']",['CC(C)O'],"['CO', 'O=CO', 'CC1OCCC(O)C1O', '.', 'CC(C)O']","[0, 0, 0, 0, 2, 21, 22, 1, 6]"
alginate,O=C(O)C1OC(C)C(O)C(O)C1O(C).O=C(O)C1OC(C)C(O)C(O)C1O(C),ipa,CC(C)O,37.37,62.5,23.5,20.0,30,13.3,0.122,223.0,"['CO', 'O=CO', 'CC1OCCC(O)C1O', '.', 'CC(C)O']",['CC(C)O'],"['CO', 'O=CO', 'CC1OCCC(O)C1O', '.', 'CC(C)O']","[0, 0, 0, 0, 2, 21, 22, 1, 6]"
alginate,O=C(O)C1OC(C)C(O)C(O)C1O(C).O=C(O)C1OC(C)C(O)C(O)C1O(C),ipa,CC(C)O,37.37,62.5,23.5,30.0,30,13.3,0.143,127.0,"['CO', 'O=CO', 'CC1OCCC(O)C1O', '.', 'CC(C)O']",['CC(C)O'],"['CO', 'O=CO', 'CC1OCCC(O)C1O', '.', 'CC(C)O']","[0, 0, 0, 0, 2, 21, 22, 1, 6]"
alginate,O=C(O)C1OC(C)C(O)C(O)C1O(C).O=C(O)C1OC(C)C(O)C(O)C1O(C),ipa,CC(C)O,37.37,50.0,23.5,10.0,30,13.3,0.0679,653.0,"['CO', 'O=CO', 'CC1OCCC(O)C1O', '.', 'CC(C)O']",['CC(C)O'],"['CO', 'O=CO', 'CC1OCCC(O)C1O', '.', 'CC(C)O']","[0, 0, 0, 0, 2, 21, 22, 1, 6]"