Polymer,Polymer_SMILES,Solvent,Solvent_SMILES,Contact_angle,Thickness,Solvent_solubility_parameter,xw_(wt%),Temperature,Permeate_pressure,J_total_flux,a_separation_factor,Polymer_BRICS,Solvent_BRICS,PS_pair_BRICS,PS_tokenized_BRICS
chitosan,NC2C(O)C(OC1OC(CO)C(O(C))C(O)C1N)C(CO)OC2(C),ipa,CC(C)O,55.1,40.0,23.5,5.0,30,13.3,0.0378,606.617647,"['CO', 'O', 'CO', 'CC1OCCC(O)C1N', 'NC1COCCC1O', '.', 'CC(C)O']",['CC(C)O'],"['CO', 'O', 'CO', 'CC1OCCC(O)C1N', 'NC1COCCC1O', '.', 'CC(C)O']","[0, 0, 2, 3, 2, 4, 5, 1, 6]"
chitosan,NC2C(O)C(OC1OC(CO)C(O(C))C(O)C1N)C(CO)OC2(C),ipa,CC(C)O,55.1,40.0,23.5,10.0,30,13.3,0.0523,257.352941,"['CO', 'O', 'CO', 'CC1OCCC(O)C1N', 'NC1COCCC1O', '.', 'CC(C)O']",['CC(C)O'],"['CO', 'O', 'CO', 'CC1OCCC(O)C1N', 'NC1COCCC1O', '.', 'CC(C)O']","[0, 0, 2, 3, 2, 4, 5, 1, 6]"
chitosan,NC2C(O)C(OC1OC(CO)C(O(C))C(O)C1N)C(CO)OC2(C),ipa,CC(C)O,55.1,40.0,23.5,15.0,30,13.3,0.0894,122.54902,"['CO', 'O', 'CO', 'CC1OCCC(O)C1N', 'NC1COCCC1O', '.', 'CC(C)O']",['CC(C)O'],"['CO', 'O', 'CO', 'CC1OCCC(O)C1N', 'NC1COCCC1O', '.', 'CC(C)O']","[0, 0, 2, 3, 2, 4, 5, 1, 6]"
chitosan,NC2C(O)C(OC1OC(CO)C(O(C))C(O)C1N)C(CO)OC2(C),ipa,CC(C)O,55.1,40.0,23.5,20.0,30,13.3,0.17,73.529412,"['CO', 'O', 'CO', 'CC1OCCC(O)C1N', 'NC1COCCC1O', '.', 'CC(C)O']",['CC(C)O'],"['CO', 'O', 'CO', 'CC1OCCC(O)C1N', 'NC1COCCC1O', '.', 'CC(C)O']","[0, 0, 2, 3, 2, 4, 5, 1, 6]"
chitosan,NC2C(O)C(OC1OC(CO)C(O(C))C(O)C1N)C(CO)OC2(C),ipa,CC(C)O,55.1,40.0,23.5,25.0,30,13.3,0.1984,49.019608,"['CO', 'O', 'CO', 'CC1OCCC(O)C1N', 'NC1COCCC1O', '.', 'CC(C)O']",['CC(C)O'],"['CO', 'O', 'CO', 'CC1OCCC(O)C1N', 'NC1COCCC1O', '.', 'CC(C)O']","[0, 0, 2, 3, 2, 4, 5, 1, 6]"
pdms,[Si](C)(C)(C)O(C),n-butanol,CCCCO,104.0,12.0,23.1,99.0,40,3.0,0.4364,0.028205,"['CO[Si](C)(C)C', '.', 'CCCCO']",['CCCCO'],"['CO[Si](C)(C)C', '.', 'CCCCO']","[0, 0, 0, 0, 0, 0, 7, 1, 8]"
pdms,[Si](C)(C)(C)O(C),n-butanol,CCCCO,104.0,12.0,23.1,95.0,40,3.0,0.9849,0.028701,"['CO[Si](C)(C)C', '.', 'CCCCO']",['CCCCO'],"['CO[Si](C)(C)C', '.', 'CCCCO']","[0, 0, 0, 0, 0, 0, 7, 1, 8]"
pdms,[Si](C)(C)(C)O(C),n-butanol,CCCCO,104.0,12.0,23.1,99.0,80,3.0,1.1455,0.028871,"['CO[Si](C)(C)C', '.', 'CCCCO']",['CCCCO'],"['CO[Si](C)(C)C', '.', 'CCCCO']","[0, 0, 0, 0, 0, 0, 7, 1, 8]"
peba,C(C)=O.COC(C)=O.COC.CNCCCCCCCCCCCC(C)=O.CCCCCOC,ipa,CC(C)O,89.0,100.0,23.5,60.0,30,6.7,1.2722,0.472727187,"['CO', 'CC=O', '.', 'CC(C)O']",['CC(C)O'],"['CO', 'CC=O', '.', 'CC(C)O']","[0, 0, 0, 0, 0, 2, 9, 1, 6]"
peba,C(C)=O.COC(C)=O.COC.CNCCCCCCCCCCCC(C)=O.CCCCCOC,ipa,CC(C)O,89.0,100.0,23.5,70.0,30,6.7,0.769,0.371428529,"['CO', 'CC=O', '.', 'CC(C)O']",['CC(C)O'],"['CO', 'CC=O', '.', 'CC(C)O']","[0, 0, 0, 0, 0, 2, 9, 1, 6]"
peba,C(C)=O.COC(C)=O.COC.CNCCCCCCCCCCCC(C)=O.CCCCCOC,ipa,CC(C)O,89.0,100.0,23.5,80.0,30,6.7,0.5411,0.305882331,"['CO', 'CC=O', '.', 'CC(C)O']",['CC(C)O'],"['CO', 'CC=O', '.', 'CC(C)O']","[0, 0, 0, 0, 0, 2, 9, 1, 6]"
peba,C(C)=O.COC(C)=O.COC.CNCCCCCCCCCCCC(C)=O.CCCCCOC,ipa,CC(C)O,89.0,100.0,23.5,90.0,30,6.7,0.2848,0.283636366,"['CO', 'CC=O', '.', 'CC(C)O']",['CC(C)O'],"['CO', 'CC=O', '.', 'CC(C)O']","[0, 0, 0, 0, 0, 2, 9, 1, 6]"
peba,C(C)=O.COC(C)=O.COC.CNCCCCCCCCCCCC(C)=O.CCCCCOC,ipa,CC(C)O,89.0,100.0,23.5,90.0,40,6.7,0.6345,0.220987638,"['CO', 'CC=O', '.', 'CC(C)O']",['CC(C)O'],"['CO', 'CC=O', '.', 'CC(C)O']","[0, 0, 0, 0, 0, 2, 9, 1, 6]"
peba,C(C)=O.COC(C)=O.COC.CNCCCCCCCCCCCC(C)=O.CCCCCOC,ipa,CC(C)O,89.0,100.0,23.5,90.0,50,6.7,1.1139,0.218292663,"['CO', 'CC=O', '.', 'CC(C)O']",['CC(C)O'],"['CO', 'CC=O', '.', 'CC(C)O']","[0, 0, 0, 0, 0, 2, 9, 1, 6]"
peba,C(C)=O.COC(C)=O.COC.CNCCCCCCCCCCCC(C)=O.CCCCCOC,ipa,CC(C)O,89.0,100.0,23.5,90.0,60,6.7,1.7387,0.192473108,"['CO', 'CC=O', '.', 'CC(C)O']",['CC(C)O'],"['CO', 'CC=O', '.', 'CC(C)O']","[0, 0, 0, 0, 0, 2, 9, 1, 6]"
pbo,FC(F)(F)C(c1ccc(C)cc1)(c6ccc(c5nc4ccc(c3ccc2nc(C)oc2c3)cc4o5)cc6)C(F)(F)F,n-butanol,CCCCO,82.0,24.24,23.1,15.0,25,1.0,0.0201,1569.666667,"['Cc1ccccc1', 'FC(F)(F)CC(F)(F)F', 'c1ccccc1', 'c1ccc2ocnc2c1', 'Cc1nc2ccccc2o1', '.', 'CCCCO']",['CCCCO'],"['Cc1ccccc1', 'FC(F)(F)CC(F)(F)F', 'c1ccccc1', 'c1ccc2ocnc2c1', 'Cc1nc2ccccc2o1', '.', 'CCCCO']","[0, 0, 10, 11, 12, 13, 14, 1, 8]"
pbo,FC(F)(F)C(c1ccc(C)cc1)(c6ccc(c5nc4ccc(c3ccc2nc(C)oc2c3)cc4o5)cc6)C(F)(F)F,ipa,CC(C)O,82.0,24.24,23.5,15.0,25,1.0,0.0245,1569.666667,"['Cc1ccccc1', 'FC(F)(F)CC(F)(F)F', 'c1ccccc1', 'c1ccc2ocnc2c1', 'Cc1nc2ccccc2o1', '.', 'CC(C)O']",['CC(C)O'],"['Cc1ccccc1', 'FC(F)(F)CC(F)(F)F', 'c1ccccc1', 'c1ccc2ocnc2c1', 'Cc1nc2ccccc2o1', '.', 'CC(C)O']","[0, 0, 10, 11, 12, 13, 14, 1, 6]"
pbo,FC(F)(F)C(c1ccc(C)cc1)(c6ccc(c5nc4ccc(c3ccc2nc(C)oc2c3)cc4o5)cc6)C(F)(F)F,ethanol,CCO,82.0,24.24,26.5,5.0,25,1.0,0.0324,77.917431,"['Cc1ccccc1', 'FC(F)(F)CC(F)(F)F', 'c1ccccc1', 'c1ccc2ocnc2c1', 'Cc1nc2ccccc2o1', '.', 'CCO']",['CCO'],"['Cc1ccccc1', 'FC(F)(F)CC(F)(F)F', 'c1ccccc1', 'c1ccc2ocnc2c1', 'Cc1nc2ccccc2o1', '.', 'CCO']","[0, 0, 10, 11, 12, 13, 14, 1, 15]"
pbo,FC(F)(F)C(c1ccc(C)cc1)(c6ccc(c5nc4ccc(c3ccc2nc(C)oc2c3)cc4o5)cc6)C(F)(F)F,n-butanol,CCCCO,82.0,24.24,23.1,15.0,25,1.0,0.0331,1044.555556,"['Cc1ccccc1', 'FC(F)(F)CC(F)(F)F', 'c1ccccc1', 'c1ccc2ocnc2c1', 'Cc1nc2ccccc2o1', '.', 'CCCCO']",['CCCCO'],"['Cc1ccccc1', 'FC(F)(F)CC(F)(F)F', 'c1ccccc1', 'c1ccc2ocnc2c1', 'Cc1nc2ccccc2o1', '.', 'CCCCO']","[0, 0, 10, 11, 12, 13, 14, 1, 8]"
pbo,FC(F)(F)C(c1ccc(C)cc1)(c6ccc(c5nc4ccc(c3ccc2nc(C)oc2c3)cc4o5)cc6)C(F)(F)F,n-butanol,CCCCO,82.0,24.24,23.1,15.0,25,1.0,0.0345,1569.666667,"['Cc1ccccc1', 'FC(F)(F)CC(F)(F)F', 'c1ccccc1', 'c1ccc2ocnc2c1', 'Cc1nc2ccccc2o1', '.', 'CCCCO']",['CCCCO'],"['Cc1ccccc1', 'FC(F)(F)CC(F)(F)F', 'c1ccccc1', 'c1ccc2ocnc2c1', 'Cc1nc2ccccc2o1', '.', 'CCCCO']","[0, 0, 10, 11, 12, 13, 14, 1, 8]"
pbo,FC(F)(F)C(c1ccc(C)cc1)(c6ccc(c5nc4ccc(c3ccc2nc(C)oc2c3)cc4o5)cc6)C(F)(F)F,ipa,CC(C)O,82.0,24.24,23.5,15.0,25,1.0,0.0374,1044.555556,"['Cc1ccccc1', 'FC(F)(F)CC(F)(F)F', 'c1ccccc1', 'c1ccc2ocnc2c1', 'Cc1nc2ccccc2o1', '.', 'CC(C)O']",['CC(C)O'],"['Cc1ccccc1', 'FC(F)(F)CC(F)(F)F', 'c1ccccc1', 'c1ccc2ocnc2c1', 'Cc1nc2ccccc2o1', '.', 'CC(C)O']","[0, 0, 10, 11, 12, 13, 14, 1, 6]"
pbo,FC(F)(F)C(c1ccc(C)cc1)(c6ccc(c5nc4ccc(c3ccc2nc(C)oc2c3)cc4o5)cc6)C(F)(F)F,ethanol,CCO,82.0,24.24,26.5,10.0,25,1.0,0.046,56.842105,"['Cc1ccccc1', 'FC(F)(F)CC(F)(F)F', 'c1ccccc1', 'c1ccc2ocnc2c1', 'Cc1nc2ccccc2o1', '.', 'CCO']",['CCO'],"['Cc1ccccc1', 'FC(F)(F)CC(F)(F)F', 'c1ccccc1', 'c1ccc2ocnc2c1', 'Cc1nc2ccccc2o1', '.', 'CCO']","[0, 0, 10, 11, 12, 13, 14, 1, 15]"
pbo,FC(F)(F)C(c1ccc(C)cc1)(c6ccc(c5nc4ccc(c3ccc2nc(C)oc2c3)cc4o5)cc6)C(F)(F)F,ipa,CC(C)O,82.0,24.24,23.5,15.0,25,1.0,0.0576,1569.666667,"['Cc1ccccc1', 'FC(F)(F)CC(F)(F)F', 'c1ccccc1', 'c1ccc2ocnc2c1', 'Cc1nc2ccccc2o1', '.', 'CC(C)O']",['CC(C)O'],"['Cc1ccccc1', 'FC(F)(F)CC(F)(F)F', 'c1ccccc1', 'c1ccc2ocnc2c1', 'Cc1nc2ccccc2o1', '.', 'CC(C)O']","[0, 0, 10, 11, 12, 13, 14, 1, 6]"
pbo,FC(F)(F)C(c1ccc(C)cc1)(c6ccc(c5nc4ccc(c3ccc2nc(C)oc2c3)cc4o5)cc6)C(F)(F)F,n-butanol,CCCCO,82.0,24.24,23.1,10.0,80,1.0,0.0577,459.0,"['Cc1ccccc1', 'FC(F)(F)CC(F)(F)F', 'c1ccccc1', 'c1ccc2ocnc2c1', 'Cc1nc2ccccc2o1', '.', 'CCCCO']",['CCCCO'],"['Cc1ccccc1', 'FC(F)(F)CC(F)(F)F', 'c1ccccc1', 'c1ccc2ocnc2c1', 'Cc1nc2ccccc2o1', '.', 'CCCCO']","[0, 0, 10, 11, 12, 13, 14, 1, 8]"
pbo,FC(F)(F)C(c1ccc(C)cc1)(c6ccc(c5nc4ccc(c3ccc2nc(C)oc2c3)cc4o5)cc6)C(F)(F)F,n-butanol,CCCCO,82.0,24.24,23.1,10.0,60,1.0,0.0596,891.0,"['Cc1ccccc1', 'FC(F)(F)CC(F)(F)F', 'c1ccccc1', 'c1ccc2ocnc2c1', 'Cc1nc2ccccc2o1', '.', 'CCCCO']",['CCCCO'],"['Cc1ccccc1', 'FC(F)(F)CC(F)(F)F', 'c1ccccc1', 'c1ccc2ocnc2c1', 'Cc1nc2ccccc2o1', '.', 'CCCCO']","[0, 0, 10, 11, 12, 13, 14, 1, 8]"
pbo,FC(F)(F)C(c1ccc(C)cc1)(c6ccc(c5nc4ccc(c3ccc2nc(C)oc2c3)cc4o5)cc6)C(F)(F)F,ethanol,CCO,82.0,24.24,26.5,15.0,25,1.0,0.0836,80.59259259,"['Cc1ccccc1', 'FC(F)(F)CC(F)(F)F', 'c1ccccc1', 'c1ccc2ocnc2c1', 'Cc1nc2ccccc2o1', '.', 'CCO']",['CCO'],"['Cc1ccccc1', 'FC(F)(F)CC(F)(F)F', 'c1ccccc1', 'c1ccc2ocnc2c1', 'Cc1nc2ccccc2o1', '.', 'CCO']","[0, 0, 10, 11, 12, 13, 14, 1, 15]"
pbo,FC(F)(F)C(c1ccc(C)cc1)(c6ccc(c5nc4ccc(c3ccc2nc(C)oc2c3)cc4o5)cc6)C(F)(F)F,ipa,CC(C)O,82.0,24.24,23.5,10.0,60,1.0,0.0846,927.0,"['Cc1ccccc1', 'FC(F)(F)CC(F)(F)F', 'c1ccccc1', 'c1ccc2ocnc2c1', 'Cc1nc2ccccc2o1', '.', 'CC(C)O']",['CC(C)O'],"['Cc1ccccc1', 'FC(F)(F)CC(F)(F)F', 'c1ccccc1', 'c1ccc2ocnc2c1', 'Cc1nc2ccccc2o1', '.', 'CC(C)O']","[0, 0, 10, 11, 12, 13, 14, 1, 6]"
pbo,FC(F)(F)C(c1ccc(C)cc1)(c6ccc(c5nc4ccc(c3ccc2nc(C)oc2c3)cc4o5)cc6)C(F)(F)F,ipa,CC(C)O,82.0,24.24,23.5,10.0,80,1.0,0.1346,199.0,"['Cc1ccccc1', 'FC(F)(F)CC(F)(F)F', 'c1ccccc1', 'c1ccc2ocnc2c1', 'Cc1nc2ccccc2o1', '.', 'CC(C)O']",['CC(C)O'],"['Cc1ccccc1', 'FC(F)(F)CC(F)(F)F', 'c1ccccc1', 'c1ccc2ocnc2c1', 'Cc1nc2ccccc2o1', '.', 'CC(C)O']","[0, 0, 10, 11, 12, 13, 14, 1, 6]"
pbo,FC(F)(F)C(c1ccc(C)cc1)(c6ccc(c5nc4ccc(c3ccc2nc(C)oc2c3)cc4o5)cc6)C(F)(F)F,ethanol,CCO,84.0,24.11,26.5,15.0,25,1.0,0.0801,68.26984127,"['Cc1ccccc1', 'FC(F)(F)CC(F)(F)F', 'c1ccccc1', 'c1ccc2ocnc2c1', 'Cc1nc2ccccc2o1', '.', 'CCO']",['CCO'],"['Cc1ccccc1', 'FC(F)(F)CC(F)(F)F', 'c1ccccc1', 'c1ccc2ocnc2c1', 'Cc1nc2ccccc2o1', '.', 'CCO']","[0, 0, 10, 11, 12, 13, 14, 1, 15]"
pbo,FC(F)(F)C(c1ccc(C)cc1)(c6ccc(c5nc4ccc(c3ccc2nc(C)oc2c3)cc4o5)cc6)C(F)(F)F,ethanol,CCO,90.0,23.35,26.5,15.0,25,1.0,0.0622,80.59259259,"['Cc1ccccc1', 'FC(F)(F)CC(F)(F)F', 'c1ccccc1', 'c1ccc2ocnc2c1', 'Cc1nc2ccccc2o1', '.', 'CCO']",['CCO'],"['Cc1ccccc1', 'FC(F)(F)CC(F)(F)F', 'c1ccccc1', 'c1ccc2ocnc2c1', 'Cc1nc2ccccc2o1', '.', 'CCO']","[0, 0, 10, 11, 12, 13, 14, 1, 15]"
pbo,FC(F)(F)C(c1ccc(C)cc1)(c6ccc(c5nc4ccc(c3ccc2nc(C)oc2c3)cc4o5)cc6)C(F)(F)F,ethanol,CCO,91.0,18.23,26.5,15.0,25,1.0,0.0486,216.1428571,"['Cc1ccccc1', 'FC(F)(F)CC(F)(F)F', 'c1ccccc1', 'c1ccc2ocnc2c1', 'Cc1nc2ccccc2o1', '.', 'CCO']",['CCO'],"['Cc1ccccc1', 'FC(F)(F)CC(F)(F)F', 'c1ccccc1', 'c1ccc2ocnc2c1', 'Cc1nc2ccccc2o1', '.', 'CCO']","[0, 0, 10, 11, 12, 13, 14, 1, 15]"
p84,Cc2ccc(Cc1ccc(C)cc1)cc2.Cc1cc(C)ccc1n5c(=O)c4ccc(C(=O)c3ccc2c(=O)n(C)c(=O)c2c3)cc4c5=O,ipa,CC(C)O,82.3,39.0,23.5,15.0,60,5.0,0.0136,1347.701149,"['CN1C(=O)c2ccccc2C1=O', 'C=O', 'Cc1cccc(C)c1', 'O=C1NC(=O)c2ccccc21', '.', 'CC(C)O']",['CC(C)O'],"['CN1C(=O)c2ccccc2C1=O', 'C=O', 'Cc1cccc(C)c1', 'O=C1NC(=O)c2ccccc21', '.', 'CC(C)O']","[0, 0, 0, 16, 17, 18, 19, 1, 6]"
p84,Cc2ccc(Cc1ccc(C)cc1)cc2.Cc1cc(C)ccc1n5c(=O)c4ccc(C(=O)c3ccc2c(=O)n(C)c(=O)c2c3)cc4c5=O,ipa,CC(C)O,82.3,39.0,23.5,15.0,80,5.0,0.0256,945.402299,"['CN1C(=O)c2ccccc2C1=O', 'C=O', 'Cc1cccc(C)c1', 'O=C1NC(=O)c2ccccc21', '.', 'CC(C)O']",['CC(C)O'],"['CN1C(=O)c2ccccc2C1=O', 'C=O', 'Cc1cccc(C)c1', 'O=C1NC(=O)c2ccccc21', '.', 'CC(C)O']","[0, 0, 0, 16, 17, 18, 19, 1, 6]"
p84,Cc2ccc(Cc1ccc(C)cc1)cc2.Cc1cc(C)ccc1n5c(=O)c4ccc(C(=O)c3ccc2c(=O)n(C)c(=O)c2c3)cc4c5=O,ipa,CC(C)O,82.3,39.0,23.5,15.0,100,5.0,0.0545,1025.862069,"['CN1C(=O)c2ccccc2C1=O', 'C=O', 'Cc1cccc(C)c1', 'O=C1NC(=O)c2ccccc21', '.', 'CC(C)O']",['CC(C)O'],"['CN1C(=O)c2ccccc2C1=O', 'C=O', 'Cc1cccc(C)c1', 'O=C1NC(=O)c2ccccc21', '.', 'CC(C)O']","[0, 0, 0, 16, 17, 18, 19, 1, 6]"
p84,Cc2ccc(Cc1ccc(C)cc1)cc2.Cc1cc(C)ccc1n5c(=O)c4ccc(C(=O)c3ccc2c(=O)n(C)c(=O)c2c3)cc4c5=O,ipa,CC(C)O,82.3,28.0,23.5,15.0,60,5.0,0.0273,1106.321839,"['CN1C(=O)c2ccccc2C1=O', 'C=O', 'Cc1cccc(C)c1', 'O=C1NC(=O)c2ccccc21', '.', 'CC(C)O']",['CC(C)O'],"['CN1C(=O)c2ccccc2C1=O', 'C=O', 'Cc1cccc(C)c1', 'O=C1NC(=O)c2ccccc21', '.', 'CC(C)O']","[0, 0, 0, 16, 17, 18, 19, 1, 6]"
p84,Cc2ccc(Cc1ccc(C)cc1)cc2.Cc1cc(C)ccc1n5c(=O)c4ccc(C(=O)c3ccc2c(=O)n(C)c(=O)c2c3)cc4c5=O,ipa,CC(C)O,82.3,28.0,23.5,15.0,80,5.0,0.0392,1025.862069,"['CN1C(=O)c2ccccc2C1=O', 'C=O', 'Cc1cccc(C)c1', 'O=C1NC(=O)c2ccccc21', '.', 'CC(C)O']",['CC(C)O'],"['CN1C(=O)c2ccccc2C1=O', 'C=O', 'Cc1cccc(C)c1', 'O=C1NC(=O)c2ccccc21', '.', 'CC(C)O']","[0, 0, 0, 16, 17, 18, 19, 1, 6]"
p84,Cc2ccc(Cc1ccc(C)cc1)cc2.Cc1cc(C)ccc1n5c(=O)c4ccc(C(=O)c3ccc2c(=O)n(C)c(=O)c2c3)cc4c5=O,ipa,CC(C)O,82.3,28.0,23.5,15.0,100,5.0,0.0699,864.942529,"['CN1C(=O)c2ccccc2C1=O', 'C=O', 'Cc1cccc(C)c1', 'O=C1NC(=O)c2ccccc21', '.', 'CC(C)O']",['CC(C)O'],"['CN1C(=O)c2ccccc2C1=O', 'C=O', 'Cc1cccc(C)c1', 'O=C1NC(=O)c2ccccc21', '.', 'CC(C)O']","[0, 0, 0, 16, 17, 18, 19, 1, 6]"
p84,Cc2ccc(Cc1ccc(C)cc1)cc2.Cc1cc(C)ccc1n5c(=O)c4ccc(C(=O)c3ccc2c(=O)n(C)c(=O)c2c3)cc4c5=O,ipa,CC(C)O,82.3,10.0,23.5,15.0,60,5.0,0.0631,2916.666667,"['CN1C(=O)c2ccccc2C1=O', 'C=O', 'Cc1cccc(C)c1', 'O=C1NC(=O)c2ccccc21', '.', 'CC(C)O']",['CC(C)O'],"['CN1C(=O)c2ccccc2C1=O', 'C=O', 'Cc1cccc(C)c1', 'O=C1NC(=O)c2ccccc21', '.', 'CC(C)O']","[0, 0, 0, 16, 17, 18, 19, 1, 6]"
p84,Cc2ccc(Cc1ccc(C)cc1)cc2.Cc1cc(C)ccc1n5c(=O)c4ccc(C(=O)c3ccc2c(=O)n(C)c(=O)c2c3)cc4c5=O,ipa,CC(C)O,82.3,10.0,23.5,15.0,80,5.0,0.1159,1790.229885,"['CN1C(=O)c2ccccc2C1=O', 'C=O', 'Cc1cccc(C)c1', 'O=C1NC(=O)c2ccccc21', '.', 'CC(C)O']",['CC(C)O'],"['CN1C(=O)c2ccccc2C1=O', 'C=O', 'Cc1cccc(C)c1', 'O=C1NC(=O)c2ccccc21', '.', 'CC(C)O']","[0, 0, 0, 16, 17, 18, 19, 1, 6]"
p84,Cc2ccc(Cc1ccc(C)cc1)cc2.Cc1cc(C)ccc1n5c(=O)c4ccc(C(=O)c3ccc2c(=O)n(C)c(=O)c2c3)cc4c5=O,ipa,CC(C)O,82.3,10.0,23.5,15.0,100,5.0,0.2182,1488.505747,"['CN1C(=O)c2ccccc2C1=O', 'C=O', 'Cc1cccc(C)c1', 'O=C1NC(=O)c2ccccc21', '.', 'CC(C)O']",['CC(C)O'],"['CN1C(=O)c2ccccc2C1=O', 'C=O', 'Cc1cccc(C)c1', 'O=C1NC(=O)c2ccccc21', '.', 'CC(C)O']","[0, 0, 0, 16, 17, 18, 19, 1, 6]"
p84,Cc2ccc(Cc1ccc(C)cc1)cc2.Cc1cc(C)ccc1n5c(=O)c4ccc(C(=O)c3ccc2c(=O)n(C)c(=O)c2c3)cc4c5=O,ipa,CC(C)O,82.3,20.5,23.5,15.0,60,1.0,0.0496,5265.366081,"['CN1C(=O)c2ccccc2C1=O', 'C=O', 'Cc1cccc(C)c1', 'O=C1NC(=O)c2ccccc21', '.', 'CC(C)O']",['CC(C)O'],"['CN1C(=O)c2ccccc2C1=O', 'C=O', 'Cc1cccc(C)c1', 'O=C1NC(=O)c2ccccc21', '.', 'CC(C)O']","[0, 0, 0, 16, 17, 18, 19, 1, 6]"
p84,Cc2ccc(Cc1ccc(C)cc1)cc2.Cc1cc(C)ccc1n5c(=O)c4ccc(C(=O)c3ccc2c(=O)n(C)c(=O)c2c3)cc4c5=O,ipa,CC(C)O,82.3,20.5,23.5,15.0,70,1.0,0.0695,5265.366081,"['CN1C(=O)c2ccccc2C1=O', 'C=O', 'Cc1cccc(C)c1', 'O=C1NC(=O)c2ccccc21', '.', 'CC(C)O']",['CC(C)O'],"['CN1C(=O)c2ccccc2C1=O', 'C=O', 'Cc1cccc(C)c1', 'O=C1NC(=O)c2ccccc21', '.', 'CC(C)O']","[0, 0, 0, 16, 17, 18, 19, 1, 6]"
p84,Cc2ccc(Cc1ccc(C)cc1)cc2.Cc1cc(C)ccc1n5c(=O)c4ccc(C(=O)c3ccc2c(=O)n(C)c(=O)c2c3)cc4c5=O,ipa,CC(C)O,82.3,20.5,23.5,15.0,80,1.0,0.1072,5265.366081,"['CN1C(=O)c2ccccc2C1=O', 'C=O', 'Cc1cccc(C)c1', 'O=C1NC(=O)c2ccccc21', '.', 'CC(C)O']",['CC(C)O'],"['CN1C(=O)c2ccccc2C1=O', 'C=O', 'Cc1cccc(C)c1', 'O=C1NC(=O)c2ccccc21', '.', 'CC(C)O']","[0, 0, 0, 16, 17, 18, 19, 1, 6]"
p84,Cc2ccc(Cc1ccc(C)cc1)cc2.Cc1cc(C)ccc1n5c(=O)c4ccc(C(=O)c3ccc2c(=O)n(C)c(=O)c2c3)cc4c5=O,ipa,CC(C)O,82.3,20.5,23.5,15.0,90,1.0,0.1728,5265.366081,"['CN1C(=O)c2ccccc2C1=O', 'C=O', 'Cc1cccc(C)c1', 'O=C1NC(=O)c2ccccc21', '.', 'CC(C)O']",['CC(C)O'],"['CN1C(=O)c2ccccc2C1=O', 'C=O', 'Cc1cccc(C)c1', 'O=C1NC(=O)c2ccccc21', '.', 'CC(C)O']","[0, 0, 0, 16, 17, 18, 19, 1, 6]"
pva,C(C)C(C)(O),ipa,CC(C)O,74.0,22.0,23.5,10.0,25,1.3,0.0293,4.930693,"['CCC(C)O', '.', 'CC(C)O']",['CC(C)O'],"['CCC(C)O', '.', 'CC(C)O']","[0, 0, 0, 0, 0, 0, 20, 1, 6]"
pva,C(C)C(C)(O),ipa,CC(C)O,74.0,22.0,23.5,5.0,25,1.3,0.0299,5.108911,"['CCC(C)O', '.', 'CC(C)O']",['CC(C)O'],"['CCC(C)O', '.', 'CC(C)O']","[0, 0, 0, 0, 0, 0, 20, 1, 6]"
pva,C(C)C(C)(O),ipa,CC(C)O,74.0,22.0,23.5,15.0,25,1.3,0.0304,5.643564,"['CCC(C)O', '.', 'CC(C)O']",['CC(C)O'],"['CCC(C)O', '.', 'CC(C)O']","[0, 0, 0, 0, 0, 0, 20, 1, 6]"
pva,C(C)C(C)(O),ipa,CC(C)O,74.0,22.0,23.5,20.0,25,1.3,0.0561,8.19802,"['CCC(C)O', '.', 'CC(C)O']",['CC(C)O'],"['CCC(C)O', '.', 'CC(C)O']","[0, 0, 0, 0, 0, 0, 20, 1, 6]"
pva,C(C)C(C)(O),ipa,CC(C)O,74.0,22.0,23.5,25.0,25,1.3,0.0967,11.049505,"['CCC(C)O', '.', 'CC(C)O']",['CC(C)O'],"['CCC(C)O', '.', 'CC(C)O']","[0, 0, 0, 0, 0, 0, 20, 1, 6]"
pva,C(C)C(C)(O),ipa,CC(C)O,74.0,22.0,23.5,25.0,75,1.3,0.495,12.33663366,"['CCC(C)O', '.', 'CC(C)O']",['CC(C)O'],"['CCC(C)O', '.', 'CC(C)O']","[0, 0, 0, 0, 0, 0, 20, 1, 6]"
pva,C(C)C(C)(O),ipa,CC(C)O,74.0,22.0,23.5,20.0,75,1.3,0.9406,2.98019802,"['CCC(C)O', '.', 'CC(C)O']",['CC(C)O'],"['CCC(C)O', '.', 'CC(C)O']","[0, 0, 0, 0, 0, 0, 20, 1, 6]"
pva,C(C)C(C)(O),ipa,CC(C)O,74.0,22.0,23.5,15.0,75,1.3,2.1782,2.00990099,"['CCC(C)O', '.', 'CC(C)O']",['CC(C)O'],"['CCC(C)O', '.', 'CC(C)O']","[0, 0, 0, 0, 0, 0, 20, 1, 6]"
pva,C(C)C(C)(O),ipa,CC(C)O,74.0,22.0,23.5,10.0,75,1.3,3.4653,1.663366337,"['CCC(C)O', '.', 'CC(C)O']",['CC(C)O'],"['CCC(C)O', '.', 'CC(C)O']","[0, 0, 0, 0, 0, 0, 20, 1, 6]"
pva,C(C)C(C)(O),ipa,CC(C)O,74.0,22.0,23.5,5.0,75,1.3,7.8713,3.673267327,"['CCC(C)O', '.', 'CC(C)O']",['CC(C)O'],"['CCC(C)O', '.', 'CC(C)O']","[0, 0, 0, 0, 0, 0, 20, 1, 6]"
pva,C(C)C(C)(O),ipa,CC(C)O,74.0,10.0,23.5,10.0,30,0.06,0.123,77.0,"['CCC(C)O', '.', 'CC(C)O']",['CC(C)O'],"['CCC(C)O', '.', 'CC(C)O']","[0, 0, 0, 0, 0, 0, 20, 1, 6]"
pva,C(C)C(C)(O),ipa,CC(C)O,74.0,10.0,23.5,12.5,30,0.06,0.138,59.0,"['CCC(C)O', '.', 'CC(C)O']",['CC(C)O'],"['CCC(C)O', '.', 'CC(C)O']","[0, 0, 0, 0, 0, 0, 20, 1, 6]"
pva,C(C)C(C)(O),ipa,CC(C)O,74.0,10.0,23.5,15.0,30,0.06,0.145,46.0,"['CCC(C)O', '.', 'CC(C)O']",['CC(C)O'],"['CCC(C)O', '.', 'CC(C)O']","[0, 0, 0, 0, 0, 0, 20, 1, 6]"
pva,C(C)C(C)(O),ipa,CC(C)O,74.0,10.0,23.5,20.0,30,0.06,0.163,30.0,"['CCC(C)O', '.', 'CC(C)O']",['CC(C)O'],"['CCC(C)O', '.', 'CC(C)O']","[0, 0, 0, 0, 0, 0, 20, 1, 6]"
pva,C(C)C(C)(O),ipa,CC(C)O,74.0,22.0,23.5,10.0,40,3.0,0.0311,142.9,"['CCC(C)O', '.', 'CC(C)O']",['CC(C)O'],"['CCC(C)O', '.', 'CC(C)O']","[0, 0, 0, 0, 0, 0, 20, 1, 6]"
pva,C(C)C(C)(O),ethanol,CCO,74.0,22.0,26.5,8.0,50,3.0,0.0328,115.15,"['CCC(C)O', '.', 'CCO']",['CCO'],"['CCC(C)O', '.', 'CCO']","[0, 0, 0, 0, 0, 0, 20, 1, 15]"
pva,C(C)C(C)(O),ethanol,CCO,74.0,22.0,26.5,10.0,40,3.0,0.0355,77.91,"['CCC(C)O', '.', 'CCO']",['CCO'],"['CCC(C)O', '.', 'CCO']","[0, 0, 0, 0, 0, 0, 20, 1, 15]"
pva,C(C)C(C)(O),ipa,CC(C)O,74.0,22.0,23.5,8.0,50,3.0,0.0357,148.27,"['CCC(C)O', '.', 'CC(C)O']",['CC(C)O'],"['CCC(C)O', '.', 'CC(C)O']","[0, 0, 0, 0, 0, 0, 20, 1, 6]"
pva,C(C)C(C)(O),ethanol,CCO,74.0,22.0,26.5,15.0,40,3.0,0.0376,103.76,"['CCC(C)O', '.', 'CCO']",['CCO'],"['CCC(C)O', '.', 'CCO']","[0, 0, 0, 0, 0, 0, 20, 1, 15]"
pva,C(C)C(C)(O),ipa,CC(C)O,74.0,22.0,23.5,10.0,40,3.0,0.0419,137.44,"['CCC(C)O', '.', 'CC(C)O']",['CC(C)O'],"['CCC(C)O', '.', 'CC(C)O']","[0, 0, 0, 0, 0, 0, 20, 1, 6]"
pva,C(C)C(C)(O),ethanol,CCO,74.0,22.0,26.5,10.0,40,3.0,0.044,57.29,"['CCC(C)O', '.', 'CCO']",['CCO'],"['CCC(C)O', '.', 'CCO']","[0, 0, 0, 0, 0, 0, 20, 1, 15]"
pva,C(C)C(C)(O),ipa,CC(C)O,74.0,22.0,23.5,12.5,50,3.0,0.0484,95.29,"['CCC(C)O', '.', 'CC(C)O']",['CC(C)O'],"['CCC(C)O', '.', 'CC(C)O']","[0, 0, 0, 0, 0, 0, 20, 1, 6]"
pva,C(C)C(C)(O),ipa,CC(C)O,74.0,22.0,23.5,12.5,50,3.0,0.0487,98.1,"['CCC(C)O', '.', 'CC(C)O']",['CC(C)O'],"['CCC(C)O', '.', 'CC(C)O']","[0, 0, 0, 0, 0, 0, 20, 1, 6]"
pva,C(C)C(C)(O),ethanol,CCO,74.0,22.0,26.5,12.5,33,3.0,0.0489,78.27,"['CCC(C)O', '.', 'CCO']",['CCO'],"['CCC(C)O', '.', 'CCO']","[0, 0, 0, 0, 0, 0, 20, 1, 15]"
pva,C(C)C(C)(O),ethanol,CCO,74.0,22.0,26.5,12.5,50,3.0,0.052,80.66,"['CCC(C)O', '.', 'CCO']",['CCO'],"['CCC(C)O', '.', 'CCO']","[0, 0, 0, 0, 0, 0, 20, 1, 15]"
pva,C(C)C(C)(O),ethanol,CCO,74.0,22.0,26.5,10.0,60,3.0,0.0522,90.23,"['CCC(C)O', '.', 'CCO']",['CCO'],"['CCC(C)O', '.', 'CCO']","[0, 0, 0, 0, 0, 0, 20, 1, 15]"
pva,C(C)C(C)(O),ipa,CC(C)O,74.0,22.0,23.5,12.5,50,3.0,0.0528,105.46,"['CCC(C)O', '.', 'CC(C)O']",['CC(C)O'],"['CCC(C)O', '.', 'CC(C)O']","[0, 0, 0, 0, 0, 0, 20, 1, 6]"
pva,C(C)C(C)(O),ipa,CC(C)O,74.0,22.0,23.5,12.5,50,3.0,0.0535,92.23,"['CCC(C)O', '.', 'CC(C)O']",['CC(C)O'],"['CCC(C)O', '.', 'CC(C)O']","[0, 0, 0, 0, 0, 0, 20, 1, 6]"
pva,C(C)C(C)(O),ipa,CC(C)O,74.0,22.0,23.5,12.5,33,3.0,0.0538,120.46,"['CCC(C)O', '.', 'CC(C)O']",['CC(C)O'],"['CCC(C)O', '.', 'CC(C)O']","[0, 0, 0, 0, 0, 0, 20, 1, 6]"
pva,C(C)C(C)(O),ipa,CC(C)O,74.0,22.0,23.5,12.5,50,3.0,0.0546,100.58,"['CCC(C)O', '.', 'CC(C)O']",['CC(C)O'],"['CCC(C)O', '.', 'CC(C)O']","[0, 0, 0, 0, 0, 0, 20, 1, 6]"
pva,C(C)C(C)(O),ipa,CC(C)O,74.0,22.0,23.5,12.5,50,3.0,0.0548,98.09,"['CCC(C)O', '.', 'CC(C)O']",['CC(C)O'],"['CCC(C)O', '.', 'CC(C)O']","[0, 0, 0, 0, 0, 0, 20, 1, 6]"
pva,C(C)C(C)(O),ipa,CC(C)O,74.0,22.0,23.5,12.5,50,3.0,0.055,96.37,"['CCC(C)O', '.', 'CC(C)O']",['CC(C)O'],"['CCC(C)O', '.', 'CC(C)O']","[0, 0, 0, 0, 0, 0, 20, 1, 6]"